! TOUCHSTONE file generated by CST MICROWAVE STUDIO
! Date and time: Tue Jan  7 09:45:48 2020
! Project name: OSHPark_FR408_Transition1.cst
! Parameters = {BottomSupport_Left_YMax=4.76; BottomSupport_Left_YMin=3.74; BottomSupport_Right_YMax=-3.74; BottomSupport_Right_YMin=-4.76; BottomSupport_XMax=11.64; BottomSupport_XMin=6.89; BottomSupport_ZMax=-1.64084; BottomSupport_ZMin=-3.58; Cu1_Thickness=0.03556; Cu2_Thickness=0.01778; Fr408Core_Thickness=1.1938; PCBThickness=1.6256; Prepreg1_Zmin=-0.20574; Prepreg_Thickness=0.17018; RFTraceYMax=0.17145; RFTrace_XMax=15; RFTrace_XMin=11.46; RFTrace_YMin=-0.17145; SMA_CenterCond_Inner_XMax=11.64; SMA_CenterCond_Radius=0.6; SMA_Dielectric_InnerRadius=0.6; SMA_Dielectric_OuterRadius=2; SMA_Dielectric_XMax=5.62; SMA_Dielectric_XMin=0; SMA_Dielectric_YCenter=0; SMA_Dielectric_ZCenter=0; SMA_Footprint_Center_XMax=12.49; SMA_Footprint_Center_XMin=7.74; SMA_Footprint_Center_YMax=0.75; SMA_Footprint_Center_YMin=-0.75; SMA_OuterCond_InnerRadius=2; SMA_OuterCond_OuterRadius=3; SMA_OuterCond_XMax=6.89; SMA_XMax=6.67; SMA_XMin=0; SMA_YCenter=0; SMA_ZCenter=0; TopSupport_ZMax=1.02; TopSupport_ZMin=0; Via1_XCenter=7.5; Via1_YCenter=-4.25; Via2_XCenter=8.75; Via2_YCenter=-4.25; Via3_XCenter=10; Via3_YCenter=-4.25; Via4_XCenter=11.25; Via4_YCenter=-4.25; Via5_XCenter=7.5; Via5_YCenter=4.25; Via6_XCenter=8.75; Via6_YCenter=4.25; Via7_XCenter=10; Via7_YCenter=4.25; Via8_XCenter=11.25; Via8_YCenter=4.25; ViaInnerRadius=0; ViaOuterRadius=0.381}
! Header version: 2015
! Port assignment regex: !\s*Touchstone port\s*([0-9]+)\s*=\s*CST MWS port\s*([0-9]+)\s*\(\"(.*)\"\)(\s*mode\s*([0-9]+))?.*
! Touchstone port assignment:
! Touchstone port 1 = CST MWS port 1 ("")
! Touchstone port 2 = CST MWS port 2 ("")
# GHz S MA R 50
0                       0.128379               0         0.880332               0         0.880332               0         0.110897               0
0.0053                 0.0128023        -22.0486         0.999929       -0.161296         0.999929       -0.161296        0.0130605         155.302
0.0106                 0.0128087         -22.266         0.999914       -0.306404         0.999914       -0.306404        0.0130521         155.224
0.0159                 0.0127865        -22.1712           0.9999        -0.45588           0.9999        -0.45588        0.0130756         154.839
0.0212                 0.0127572        -21.9975         0.999885       -0.606448         0.999885       -0.606448        0.0131072         154.377
0.0265                 0.0127253        -21.7913         0.999871       -0.757454         0.999871       -0.757454        0.0131421         153.886
0.0318                 0.0126923        -21.5678         0.999857       -0.908678         0.999857       -0.908678         0.013179         153.381
0.0371                 0.0126589        -21.3337         0.999842        -1.06003         0.999842        -1.06003         0.013217         152.869
0.0424                 0.0126252        -21.0927         0.999828        -1.21145         0.999828        -1.21145        0.0132557         152.353
0.0477                 0.0125915         -20.846         0.999813        -1.36293         0.999813        -1.36293        0.0132951         151.835
0.053                  0.0125582        -20.5948         0.999798        -1.51445         0.999798        -1.51445        0.0133352         151.316
0.0583                 0.0125252        -20.3396         0.999784        -1.66599         0.999784        -1.66599        0.0133759         150.797
0.0636                 0.0124924        -20.0811         0.999769        -1.81755         0.999769        -1.81755         0.013417         150.278
0.0689                   0.01246        -19.8198         0.999754        -1.96913         0.999754        -1.96913        0.0134584         149.761
0.0742                 0.0124279        -19.5558          0.99974        -2.12072          0.99974        -2.12072        0.0135003         149.244
0.0795                 0.0123962        -19.2892         0.999725        -2.27232         0.999725        -2.27232        0.0135426         148.728
0.0848                 0.0123649        -19.0201          0.99971        -2.42392          0.99971        -2.42392        0.0135852         148.213
0.0901                  0.012334        -18.7488         0.999695        -2.57554         0.999695        -2.57554        0.0136281           147.7
0.0954                 0.0123036        -18.4753         0.999681        -2.72716         0.999681        -2.72716        0.0136714         147.188
0.1007                 0.0122736        -18.1996         0.999666        -2.87878         0.999666        -2.87878        0.0137151         146.677
0.106                   0.012244        -17.9218         0.999651        -3.03041         0.999651        -3.03041         0.013759         146.168
0.1113                 0.0122149        -17.6419         0.999636        -3.18204         0.999636        -3.18204        0.0138033         145.661
0.1166                 0.0121862        -17.3601         0.999621        -3.33367         0.999621        -3.33367        0.0138479         145.155
0.1219                  0.012158        -17.0763         0.999606        -3.48531         0.999606        -3.48531        0.0138927          144.65
0.1272                 0.0121303        -16.7905         0.999591        -3.63695         0.999591        -3.63695        0.0139379         144.147
0.1325                  0.012103        -16.5029         0.999576        -3.78859         0.999576        -3.78859        0.0139834         143.646
0.1378                 0.0120762        -16.2134         0.999561        -3.94023         0.999561        -3.94023        0.0140291         143.146
0.1431                   0.01205         -15.922         0.999545        -4.09187         0.999545        -4.09187        0.0140752         142.648
0.1484                 0.0120242        -15.6289          0.99953        -4.24352          0.99953        -4.24352        0.0141215         142.151
0.1537                 0.0119988         -15.334         0.999515        -4.39516         0.999515        -4.39516        0.0141681         141.656
0.159                   0.011974        -15.0373           0.9995        -4.54681           0.9995        -4.54681         0.014215         141.163
0.1643                 0.0119497        -14.7389         0.999484        -4.69846         0.999484        -4.69846        0.0142622         140.671
0.1696                  0.011926        -14.4388         0.999469        -4.85011         0.999469        -4.85011        0.0143096         140.181
0.1749                 0.0119027         -14.137         0.999454        -5.00176         0.999454        -5.00176        0.0143573         139.692
0.1802                 0.0118799        -13.8335         0.999438        -5.15341         0.999438        -5.15341        0.0144052         139.205
0.1855                 0.0118577        -13.5285         0.999423        -5.30506         0.999423        -5.30506        0.0144535         138.719
0.1908                 0.0118359        -13.2218         0.999407        -5.45672         0.999407        -5.45672         0.014502         138.235
0.1961                 0.0118148        -12.9135         0.999392        -5.60837         0.999392        -5.60837        0.0145507         137.753
0.2014                 0.0117941        -12.6037         0.999376        -5.76002         0.999376        -5.76002        0.0145997         137.272
0.2067                  0.011774        -12.2924         0.999361        -5.91168         0.999361        -5.91168        0.0146489         136.792
0.212                  0.0117544        -11.9796         0.999345        -6.06333         0.999345        -6.06333        0.0146984         136.314
0.2173                 0.0117354        -11.6654          0.99933        -6.21499          0.99933        -6.21499        0.0147482         135.838
0.2226                 0.0117169        -11.3497         0.999314        -6.36664         0.999314        -6.36664        0.0147982         135.363
0.2279                 0.0116989        -11.0326         0.999298         -6.5183         0.999298         -6.5183        0.0148484          134.89
0.2332                 0.0116815        -10.7141         0.999282        -6.66996         0.999282        -6.66996        0.0148989         134.418
0.2385                 0.0116647        -10.3943         0.999267        -6.82161         0.999267        -6.82161        0.0149496         133.948
0.2438                 0.0116484        -10.0731         0.999251        -6.97327         0.999251        -6.97327        0.0150006         133.479
0.2491                 0.0116327        -9.75071         0.999235        -7.12493         0.999235        -7.12493        0.0150518         133.012
0.2544                 0.0116176        -9.42705         0.999219        -7.27659         0.999219        -7.27659        0.0151032         132.546
0.2597                  0.011603        -9.10217         0.999203        -7.42825         0.999203        -7.42825        0.0151549         132.082
0.265                   0.011589        -8.77611         0.999187        -7.57991         0.999187        -7.57991        0.0152068         131.619
0.2703                 0.0115756         -8.4489         0.999171        -7.73157         0.999171        -7.73157        0.0152589         131.157
0.2756                 0.0115627        -8.12058         0.999155        -7.88323         0.999155        -7.88323        0.0153113         130.697
0.2809                 0.0115505        -7.79119         0.999139        -8.03489         0.999139        -8.03489        0.0153638         130.239
0.2862                 0.0115388        -7.46075         0.999123        -8.18655         0.999123        -8.18655        0.0154166         129.782
0.2915                 0.0115277         -7.1293         0.999107        -8.33821         0.999107        -8.33821        0.0154696         129.326
0.2968                 0.0115172        -6.79689         0.999091        -8.48987         0.999091        -8.48987        0.0155229         128.871
0.3021                 0.0115073        -6.46355         0.999075        -8.64153         0.999075        -8.64153        0.0155763         128.418
0.3074                  0.011498        -6.12931         0.999058        -8.79319         0.999058        -8.79319          0.01563         127.967
0.3127                 0.0114892        -5.79423         0.999042        -8.94485         0.999042        -8.94485        0.0156839         127.517
0.318                  0.0114811        -5.45832         0.999026        -9.09651         0.999026        -9.09651         0.015738         127.068
0.3233                 0.0114736        -5.12165         0.999009        -9.24817         0.999009        -9.24817        0.0157923          126.62
0.3286                 0.0114667        -4.78424         0.998993        -9.39984         0.998993        -9.39984        0.0158468         126.174
0.3339                 0.0114604        -4.44614         0.998977         -9.5515         0.998977         -9.5515        0.0159015         125.729
0.3392                 0.0114547        -4.10738          0.99896        -9.70316          0.99896        -9.70316        0.0159565         125.286
0.3445                 0.0114496        -3.76801         0.998944        -9.85482         0.998944        -9.85482        0.0160116         124.844
0.3498                 0.0114452        -3.42808         0.998927        -10.0065         0.998927        -10.0065         0.016067         124.403
0.3551                 0.0114413        -3.08761         0.998911        -10.1582         0.998911        -10.1582        0.0161225         123.963
0.3604                 0.0114381        -2.74667         0.998894        -10.3098         0.998894        -10.3098        0.0161783         123.525
0.3657                 0.0114355        -2.40527         0.998877        -10.4615         0.998877        -10.4615        0.0162342         123.088
0.371                  0.0114335        -2.06348         0.998861        -10.6131         0.998861        -10.6131        0.0162904         122.652
0.3763                 0.0114321        -1.72135         0.998844        -10.7648         0.998844        -10.7648        0.0163467         122.218
0.3816                 0.0114314         -1.3789         0.998827        -10.9165         0.998827        -10.9165        0.0164033         121.785
0.3869                 0.0114312        -1.03617         0.998811        -11.0681         0.998811        -11.0681          0.01646         121.353
0.3922                 0.0114317       -0.693229         0.998794        -11.2198         0.998794        -11.2198        0.0165169         120.922
0.3975                 0.0114329       -0.350105         0.998777        -11.3715         0.998777        -11.3715        0.0165741         120.493
0.4028                 0.0114346     -0.00685565          0.99876        -11.5231          0.99876        -11.5231        0.0166314         120.064
0.4081                  0.011437        0.336485         0.998743        -11.6748         0.998743        -11.6748        0.0166889         119.637
0.4134                   0.01144        0.679876         0.998726        -11.8265         0.998726        -11.8265        0.0167466         119.212
0.4187                 0.0114437         1.02327         0.998709        -11.9781         0.998709        -11.9781        0.0168045         118.787
0.424                  0.0114479         1.36661         0.998692        -12.1298         0.998692        -12.1298        0.0168626         118.363
0.4293                 0.0114529         1.70986         0.998675        -12.2815         0.998675        -12.2815        0.0169209         117.941
0.4346                 0.0114584         2.05297         0.998658        -12.4331         0.998658        -12.4331        0.0169793          117.52
0.4399                 0.0114646         2.39592         0.998641        -12.5848         0.998641        -12.5848         0.017038           117.1
0.4452                 0.0114714         2.73863         0.998624        -12.7365         0.998624        -12.7365        0.0170968         116.681
0.4505                 0.0114789         3.08108         0.998607        -12.8881         0.998607        -12.8881        0.0171558         116.264
0.4558                  0.011487         3.42321         0.998589        -13.0398         0.998589        -13.0398         0.017215         115.847
0.4611                 0.0114957         3.76498         0.998572        -13.1915         0.998572        -13.1915        0.0172743         115.432
0.4664                  0.011505         4.10635         0.998555        -13.3431         0.998555        -13.3431        0.0173339         115.017
0.4717                  0.011515         4.44728         0.998538        -13.4948         0.998538        -13.4948        0.0173936         114.604
0.477                  0.0115257         4.78772          0.99852        -13.6465          0.99852        -13.6465        0.0174535         114.192
0.4823                 0.0115369         5.12761         0.998503        -13.7981         0.998503        -13.7981        0.0175136         113.781
0.4876                 0.0115488         5.46693         0.998485        -13.9498         0.998485        -13.9498        0.0175739         113.371
0.4929                 0.0115614         5.80564         0.998468        -14.1015         0.998468        -14.1015        0.0176343         112.963
0.4982                 0.0115745         6.14369          0.99845        -14.2531          0.99845        -14.2531        0.0176949         112.555
0.5035                 0.0115883         6.48104         0.998433        -14.4048         0.998433        -14.4048        0.0177557         112.148
0.5088                 0.0116028         6.81762         0.998415        -14.5565         0.998415        -14.5565        0.0178167         111.742
0.5141                 0.0116178         7.15342         0.998398        -14.7081         0.998398        -14.7081        0.0178778         111.338
0.5194                 0.0116335          7.4884          0.99838        -14.8598          0.99838        -14.8598        0.0179391         110.934
0.5247                 0.0116499         7.82252         0.998362        -15.0115         0.998362        -15.0115        0.0180006         110.532
0.53                   0.0116668         8.15573         0.998345        -15.1631         0.998345        -15.1631        0.0180622          110.13
0.5353                 0.0116844         8.48797         0.998327        -15.3148         0.998327        -15.3148        0.0181241          109.73
0.5406                 0.0117026         8.81923         0.998309        -15.4665         0.998309        -15.4665         0.018186          109.33
0.5459                 0.0117214         9.14947         0.998291        -15.6181         0.998291        -15.6181        0.0182482         108.932
0.5512                 0.0117409         9.47865         0.998273        -15.7698         0.998273        -15.7698        0.0183105         108.534
0.5565                  0.011761         9.80674         0.998256        -15.9215         0.998256        -15.9215         0.018373         108.138
0.5618                 0.0117817         10.1337         0.998238        -16.0732         0.998238        -16.0732        0.0184357         107.742
0.5671                  0.011803         10.4594          0.99822        -16.2248          0.99822        -16.2248        0.0184985         107.348
0.5724                  0.011825          10.784         0.998202        -16.3765         0.998202        -16.3765        0.0185615         106.954
0.5777                 0.0118475         11.1073         0.998184        -16.5282         0.998184        -16.5282        0.0186247         106.562
0.583                  0.0118707         11.4293         0.998166        -16.6798         0.998166        -16.6798         0.018688          106.17
0.5883                 0.0118945           11.75         0.998147        -16.8315         0.998147        -16.8315        0.0187515         105.779
0.5936                 0.0119189         12.0694         0.998129        -16.9832         0.998129        -16.9832        0.0188151         105.389
0.5989                 0.0119439         12.3874         0.998111        -17.1348         0.998111        -17.1348        0.0188789         105.001
0.6042                 0.0119696          12.704         0.998093        -17.2865         0.998093        -17.2865        0.0189429         104.613
0.6095                 0.0119958         13.0191         0.998075        -17.4382         0.998075        -17.4382         0.019007         104.226
0.6148                 0.0120226         13.3328         0.998056        -17.5899         0.998056        -17.5899        0.0190713         103.839
0.6201                 0.0120501          13.645         0.998038        -17.7415         0.998038        -17.7415        0.0191358         103.454
0.6254                 0.0120781         13.9556          0.99802        -17.8932          0.99802        -17.8932        0.0192004          103.07
0.6307                 0.0121067         14.2647         0.998001        -18.0449         0.998001        -18.0449        0.0192652         102.686
0.636                  0.0121359         14.5722         0.997983        -18.1966         0.997983        -18.1966        0.0193301         102.304
0.6413                 0.0121658         14.8781         0.997964        -18.3482         0.997964        -18.3482        0.0193952         101.922
0.6466                 0.0121962         15.1824         0.997946        -18.4999         0.997946        -18.4999        0.0194605         101.541
0.6519                 0.0122272          15.485         0.997927        -18.6516         0.997927        -18.6516        0.0195259         101.161
0.6572                 0.0122588         15.7859         0.997909        -18.8032         0.997909        -18.8032        0.0195915         100.782
0.6625                 0.0122909         16.0851          0.99789        -18.9549          0.99789        -18.9549        0.0196572         100.404
0.6678                 0.0123237         16.3826         0.997871        -19.1066         0.997871        -19.1066        0.0197231         100.027
0.6731                  0.012357         16.6783         0.997853        -19.2583         0.997853        -19.2583        0.0197892         99.6503
0.6784                 0.0123909         16.9723         0.997834        -19.4099         0.997834        -19.4099        0.0198554         99.2746
0.6837                 0.0124254         17.2645         0.997815        -19.5616         0.997815        -19.5616        0.0199218         98.8997
0.689                  0.0124604         17.5548         0.997797        -19.7133         0.997797        -19.7133        0.0199883         98.5257
0.6943                  0.012496         17.8433         0.997778         -19.865         0.997778         -19.865         0.020055         98.1525
0.6996                 0.0125322           18.13         0.997759        -20.0166         0.997759        -20.0166        0.0201218         97.7801
0.7049                 0.0125689         18.4148          0.99774        -20.1683          0.99774        -20.1683        0.0201888         97.4084
0.7102                 0.0126062         18.6977         0.997721          -20.32         0.997721          -20.32        0.0202559         97.0376
0.7155                 0.0126441         18.9788         0.997702        -20.4717         0.997702        -20.4717        0.0203232         96.6676
0.7208                 0.0126825         19.2578         0.997683        -20.6233         0.997683        -20.6233        0.0203907         96.2984
0.7261                 0.0127214          19.535         0.997664         -20.775         0.997664         -20.775        0.0204583           95.93
0.7314                 0.0127609         19.8102         0.997645        -20.9267         0.997645        -20.9267         0.020526         95.5623
0.7367                 0.0128009         20.0835         0.997626        -21.0784         0.997626        -21.0784        0.0205939         95.1954
0.742                  0.0128415         20.3548         0.997607          -21.23         0.997607          -21.23         0.020662         94.8293
0.7473                 0.0128826         20.6241         0.997587        -21.3817         0.997587        -21.3817        0.0207302          94.464
0.7526                 0.0129243         20.8914         0.997568        -21.5334         0.997568        -21.5334        0.0207986         94.0994
0.7579                 0.0129665         21.1568         0.997549        -21.6851         0.997549        -21.6851        0.0208671         93.7356
0.7632                 0.0130092         21.4201          0.99753        -21.8367          0.99753        -21.8367        0.0209358         93.3725
0.7685                 0.0130524         21.6814          0.99751        -21.9884          0.99751        -21.9884        0.0210046         93.0101
0.7738                 0.0130962         21.9406         0.997491        -22.1401         0.997491        -22.1401        0.0210736         92.6485
0.7791                 0.0131404         22.1979         0.997472        -22.2918         0.997472        -22.2918        0.0211427         92.2877
0.7844                 0.0131852         22.4531         0.997452        -22.4434         0.997452        -22.4434         0.021212         91.9275
0.7897                 0.0132305         22.7062         0.997433        -22.5951         0.997433        -22.5951        0.0212815         91.5681
0.795                  0.0132763         22.9573         0.997413        -22.7468         0.997413        -22.7468         0.021351         91.2094
0.8003                 0.0133227         23.2063         0.997394        -22.8985         0.997394        -22.8985        0.0214208         90.8514
0.8056                 0.0133695         23.4532         0.997374        -23.0501         0.997374        -23.0501        0.0214907         90.4942
0.8109                 0.0134168         23.6981         0.997354        -23.2018         0.997354        -23.2018        0.0215607         90.1376
0.8162                 0.0134646         23.9409         0.997335        -23.3535         0.997335        -23.3535        0.0216309         89.7817
0.8215                  0.013513         24.1817         0.997315        -23.5052         0.997315        -23.5052        0.0217012         89.4266
0.8268                 0.0135618         24.4203         0.997295        -23.6569         0.997295        -23.6569        0.0217717         89.0721
0.8321                 0.0136111         24.6569         0.997275        -23.8085         0.997275        -23.8085        0.0218424         88.7183
0.8374                 0.0136608         24.8914         0.997256        -23.9602         0.997256        -23.9602        0.0219132         88.3652
0.8427                 0.0137111         25.1238         0.997236        -24.1119         0.997236        -24.1119        0.0219841         88.0128
0.848                  0.0137618         25.3541         0.997216        -24.2636         0.997216        -24.2636        0.0220552          87.661
0.8533                 0.0138131         25.5823         0.997196        -24.4152         0.997196        -24.4152        0.0221265           87.31
0.8586                 0.0138648         25.8084         0.997176        -24.5669         0.997176        -24.5669        0.0221979         86.9596
0.8639                 0.0139169         26.0325         0.997156        -24.7186         0.997156        -24.7186        0.0222694         86.6098
0.8692                 0.0139695         26.2545         0.997136        -24.8703         0.997136        -24.8703        0.0223411         86.2607
0.8745                 0.0140226         26.4744         0.997116         -25.022         0.997116         -25.022        0.0224129         85.9123
0.8798                 0.0140762         26.6923         0.997096        -25.1736         0.997096        -25.1736        0.0224849         85.5645
0.8851                 0.0141302          26.908         0.997076        -25.3253         0.997076        -25.3253        0.0225571         85.2174
0.8904                 0.0141846         27.1217         0.997056         -25.477         0.997056         -25.477        0.0226294         84.8709
0.8957                 0.0142396         27.3333         0.997035        -25.6287         0.997035        -25.6287        0.0227018          84.525
0.901                  0.0142949         27.5429         0.997015        -25.7804         0.997015        -25.7804        0.0227744         84.1798
0.9063                 0.0143507         27.7503         0.996995         -25.932         0.996995         -25.932        0.0228471         83.8352
0.9116                  0.014407         27.9558         0.996974        -26.0837         0.996974        -26.0837          0.02292         83.4913
0.9169                 0.0144636         28.1592         0.996954        -26.2354         0.996954        -26.2354         0.022993         83.1479
0.9222                 0.0145208         28.3605         0.996934        -26.3871         0.996934        -26.3871        0.0230662         82.8052
0.9275                 0.0145783         28.5598         0.996913        -26.5388         0.996913        -26.5388        0.0231395         82.4631
0.9328                 0.0146363         28.7571         0.996893        -26.6904         0.996893        -26.6904         0.023213         82.1216
0.9381                 0.0146947         28.9523         0.996872        -26.8421         0.996872        -26.8421        0.0232867         81.7807
0.9434                 0.0147536         29.1455         0.996852        -26.9938         0.996852        -26.9938        0.0233604         81.4405
0.9487                 0.0148128         29.3367         0.996831        -27.1455         0.996831        -27.1455        0.0234344         81.1008
0.954                  0.0148725         29.5259         0.996811        -27.2972         0.996811        -27.2972        0.0235084         80.7617
0.9593                 0.0149326         29.7131          0.99679        -27.4488          0.99679        -27.4488        0.0235827         80.4233
0.9646                 0.0149931         29.8982         0.996769        -27.6005         0.996769        -27.6005         0.023657         80.0854
0.9699                  0.015054         30.0814         0.996748        -27.7522         0.996748        -27.7522        0.0237316         79.7481
0.9752                 0.0151154         30.2627         0.996728        -27.9039         0.996728        -27.9039        0.0238062         79.4114
0.9805                 0.0151771         30.4419         0.996707        -28.0556         0.996707        -28.0556         0.023881         79.0752
0.9858                 0.0152392         30.6192         0.996686        -28.2073         0.996686        -28.2073         0.023956         78.7397
0.9911                 0.0153018         30.7945         0.996665        -28.3589         0.996665        -28.3589        0.0240311         78.4047
0.9964                 0.0153647         30.9679         0.996644        -28.5106         0.996644        -28.5106        0.0241064         78.0703
1.0017                  0.015428         31.1394         0.996623        -28.6623         0.996623        -28.6623        0.0241818         77.7365