! TOUCHSTONE file generated by CST MICROWAVE STUDIO
! Date and time: Mon Jan  6 12:12:26 2020
! Project name: OSHPark_FR408_Transition_0.cst
! Parameters = {BottomSupport_Left_YMax=4.76; BottomSupport_Left_YMin=3.74; BottomSupport_Right_YMax=-3.74; BottomSupport_Right_YMin=-4.76; BottomSupport_XMax=11.64; BottomSupport_XMin=6.89; BottomSupport_ZMax=-1.64084; BottomSupport_ZMin=-3.58; Cu1_Thickness=0.03556; Cu2_Thickness=0.01778; Fr408Core_Thickness=1.1938; PCBThickness=1.6256; Prepreg1_Zmin=-0.20574; Prepreg_Thickness=0.17018; RFTraceYMax=0.17145; RFTrace_XMax=15; RFTrace_XMin=11.46; RFTrace_YMin=-0.17145; SMA_CenterCond_Inner_XMax=11.64; SMA_CenterCond_Radius=0.6; SMA_Dielectric_InnerRadius=0.6; SMA_Dielectric_OuterRadius=2; SMA_Dielectric_XMax=5.62; SMA_Dielectric_XMin=0; SMA_Dielectric_YCenter=0; SMA_Dielectric_ZCenter=0; SMA_Footprint_Center_XMax=12.49; SMA_Footprint_Center_XMin=7.74; SMA_Footprint_Center_YMax=0.75; SMA_Footprint_Center_YMin=-0.75; SMA_OuterCond_InnerRadius=2; SMA_OuterCond_OuterRadius=3; SMA_OuterCond_XMax=6.89; SMA_XMax=6.67; SMA_XMin=0; SMA_YCenter=0; SMA_ZCenter=0; TopSupport_ZMax=1.02; TopSupport_ZMin=0; Via1_XCenter=7.5; Via1_YCenter=-4.25; Via2_XCenter=8.75; Via2_YCenter=-4.25; Via3_XCenter=10; Via3_YCenter=-4.25; Via4_XCenter=11.25; Via4_YCenter=-4.25; Via5_XCenter=7.5; Via5_YCenter=4.25; Via6_XCenter=8.75; Via6_YCenter=4.25; Via7_XCenter=10; Via7_YCenter=4.25; Via8_XCenter=11.25; Via8_YCenter=4.25; ViaInnerRadius=0; ViaOuterRadius=0.381}
! Header version: 2015
! Port assignment regex: !\s*Touchstone port\s*([0-9]+)\s*=\s*CST MWS port\s*([0-9]+)\s*\(\"(.*)\"\)(\s*mode\s*([0-9]+))?.*
! Touchstone port assignment:
! Touchstone port 1 = CST MWS port 1 ("")
! Touchstone port 2 = CST MWS port 2 ("")
# GHz S MA R 50
0                       0.318315               0          0.68516               0          0.68516               0         0.311379               0
0.0053                 0.0110656        -31.8001         0.999935       -0.202778         0.999935       -0.202778        0.0104177         154.964
0.0106                 0.0117454        -37.1873         0.999905       -0.378037         0.999905       -0.378037       0.00997864         161.308
0.0159                 0.0124414        -41.5394         0.999873       -0.560016         0.999873       -0.560016       0.00971064         167.475
0.0212                 0.0131756        -45.3423          0.99984       -0.743674          0.99984       -0.743674       0.00957014         173.739
0.0265                 0.0139479        -48.7203         0.999805       -0.928002         0.999805       -0.928002       0.00955286        -179.962
0.0318                 0.0147559         -51.733         0.999769        -1.11266         0.999769        -1.11266       0.00965913         -173.76
0.0371                 0.0155934        -54.4399         0.999732        -1.29751         0.999732        -1.29751       0.00988099        -167.791
0.0424                 0.0164548        -56.8908         0.999694        -1.48248         0.999694        -1.48248        0.0102075        -162.162
0.0477                 0.0173397        -59.1025         0.999655        -1.66752         0.999655        -1.66752         0.010634         -156.96
0.053                  0.0182446        -61.1058         0.999614        -1.85261         0.999614        -1.85261        0.0111488        -152.225
0.0583                  0.019167        -62.9253         0.999573        -2.03774         0.999573        -2.03774        0.0117407        -147.967
0.0636                 0.0201033        -64.5911          0.99953         -2.2229          0.99953         -2.2229        0.0123963        -144.162
0.0689                 0.0210518        -66.1217         0.999486        -2.40807         0.999486        -2.40807        0.0131061        -140.776
0.0742                  0.022011        -67.5322         0.999441        -2.59326         0.999441        -2.59326         0.013862        -137.774
0.0795                 0.0229796         -68.836         0.999394        -2.77845         0.999394        -2.77845        0.0146571        -135.114
0.0848                 0.0239566        -70.0451         0.999347        -2.96365         0.999347        -2.96365        0.0154852        -132.758
0.0901                 0.0249408        -71.1704         0.999298        -3.14886         0.999298        -3.14886        0.0163412        -130.668
0.0954                 0.0259314        -72.2211         0.999249        -3.33407         0.999249        -3.33407         0.017221        -128.812
0.1007                 0.0269277        -73.2049         0.999198        -3.51928         0.999198        -3.51928        0.0181209        -127.161
0.106                  0.0279291        -74.1285         0.999146        -3.70449         0.999146        -3.70449        0.0190382        -125.689
0.1113                 0.0289351         -74.998         0.999092        -3.88969         0.999092        -3.88969        0.0199705        -124.375
0.1166                  0.029945        -75.8187         0.999038         -4.0749         0.999038         -4.0749        0.0209156        -123.199
0.1219                 0.0309586        -76.5953         0.998983         -4.2601         0.998983         -4.2601         0.021872        -122.145
0.1272                 0.0319754        -77.3317         0.998926         -4.4453         0.998926         -4.4453         0.022838        -121.198
0.1325                 0.0329952        -78.0315         0.998868        -4.63049         0.998868        -4.63049        0.0238127        -120.347
0.1378                 0.0340176         -78.698         0.998809        -4.81568         0.998809        -4.81568        0.0247948        -119.582
0.1431                 0.0350424         -79.334         0.998749        -5.00086         0.998749        -5.00086        0.0257836        -118.892
0.1484                 0.0360693        -79.9421         0.998688        -5.18604         0.998688        -5.18604        0.0267782        -118.269
0.1537                 0.0370982        -80.5245         0.998626        -5.37121         0.998626        -5.37121        0.0277781        -117.708
0.159                  0.0381289        -81.0833         0.998562        -5.55638         0.998562        -5.55638        0.0287825        -117.201
0.1643                 0.0391612        -81.6203         0.998498        -5.74153         0.998498        -5.74153        0.0297912        -116.744
0.1696                  0.040195         -82.137         0.998432        -5.92668         0.998432        -5.92668        0.0308035        -116.331
0.1749                   0.04123        -82.6352         0.998365        -6.11183         0.998365        -6.11183        0.0318192         -115.96
0.1802                 0.0422663         -83.116         0.998297        -6.29696         0.998297        -6.29696        0.0328379        -115.625
0.1855                 0.0433037        -83.5808         0.998228        -6.48209         0.998228        -6.48209        0.0338593        -115.324
0.1908                 0.0443421        -84.0305         0.998158         -6.6672         0.998158         -6.6672        0.0348831        -115.053
0.1961                 0.0453814        -84.4663         0.998086        -6.85231         0.998086        -6.85231        0.0359091        -114.811
0.2014                 0.0464215         -84.889         0.998014        -7.03741         0.998014        -7.03741        0.0369371        -114.595
0.2067                 0.0474624        -85.2996          0.99794         -7.2225          0.99794         -7.2225         0.037967        -114.403
0.212                  0.0485039        -85.6988         0.997865        -7.40758         0.997865        -7.40758        0.0389985        -114.233
0.2173                  0.049546        -86.0872         0.997789        -7.59265         0.997789        -7.59265        0.0400315        -114.083
0.2226                 0.0505887        -86.4657         0.997712        -7.77771         0.997712        -7.77771        0.0410658        -113.952
0.2279                 0.0516319        -86.8346         0.997634        -7.96276         0.997634        -7.96276        0.0421014        -113.839
0.2332                 0.0526755        -87.1948         0.997555         -8.1478         0.997555         -8.1478        0.0431381        -113.741
0.2385                 0.0537195        -87.5465         0.997474        -8.33283         0.997474        -8.33283        0.0441758        -113.659
0.2438                 0.0547638        -87.8903         0.997393        -8.51785         0.997393        -8.51785        0.0452144        -113.591
0.2491                 0.0558085        -88.2267          0.99731        -8.70286          0.99731        -8.70286        0.0462539        -113.536
0.2544                 0.0568534         -88.556         0.997226        -8.88785         0.997226        -8.88785        0.0472941        -113.494
0.2597                 0.0578986        -88.8787         0.997141        -9.07284         0.997141        -9.07284        0.0483351        -113.462
0.265                  0.0589439        -89.1951         0.997055        -9.25781         0.997055        -9.25781        0.0493766        -113.442
0.2703                 0.0599894        -89.5054         0.996968        -9.44277         0.996968        -9.44277        0.0504187        -113.432
0.2756                  0.061035        -89.8101          0.99688        -9.62772          0.99688        -9.62772        0.0514614        -113.431
0.2809                 0.0620807        -90.1094         0.996791        -9.81265         0.996791        -9.81265        0.0525044        -113.439
0.2862                 0.0631265        -90.4036           0.9967        -9.99757           0.9967        -9.99757        0.0535479        -113.456
0.2915                 0.0641724        -90.6929         0.996609        -10.1825         0.996609        -10.1825        0.0545917         -113.48
0.2968                 0.0652182        -90.9776         0.996516        -10.3674         0.996516        -10.3674        0.0556358        -113.512
0.3021                 0.0662641        -91.2578         0.996422        -10.5523         0.996422        -10.5523        0.0566803        -113.551
0.3074                 0.0673099        -91.5338         0.996327        -10.7371         0.996327        -10.7371        0.0577249        -113.597
0.3127                 0.0683557        -91.8058         0.996231         -10.922         0.996231         -10.922        0.0587697        -113.649
0.318                  0.0694015         -92.074         0.996134        -11.1068         0.996134        -11.1068        0.0598148        -113.708
0.3233                 0.0704471        -92.3384         0.996036        -11.2917         0.996036        -11.2917        0.0608599        -113.771
0.3286                 0.0714927        -92.5994         0.995936        -11.4765         0.995936        -11.4765        0.0619052        -113.841
0.3339                 0.0725381         -92.857         0.995836        -11.6613         0.995836        -11.6613        0.0629505        -113.915
0.3392                 0.0735834        -93.1114         0.995734        -11.8461         0.995734        -11.8461        0.0639959        -113.994
0.3445                 0.0746285        -93.3627         0.995632        -12.0308         0.995632        -12.0308        0.0650413        -114.078
0.3498                 0.0756735         -93.611         0.995528        -12.2156         0.995528        -12.2156        0.0660867        -114.166
0.3551                 0.0767183        -93.8565         0.995423        -12.4003         0.995423        -12.4003        0.0671321        -114.259
0.3604                 0.0777629        -94.0993         0.995317        -12.5851         0.995317        -12.5851        0.0681775        -114.355
0.3657                 0.0788072        -94.3395          0.99521        -12.7698          0.99521        -12.7698        0.0692228        -114.456
0.371                  0.0798514        -94.5771         0.995102        -12.9545         0.995102        -12.9545         0.070268         -114.56
0.3763                 0.0808953        -94.8124         0.994993        -13.1391         0.994993        -13.1391        0.0713131        -114.668
0.3816                  0.081939        -95.0453         0.994882        -13.3238         0.994882        -13.3238        0.0723582        -114.778
0.3869                 0.0829824         -95.276         0.994771        -13.5084         0.994771        -13.5084        0.0734031        -114.893
0.3922                 0.0840255        -95.5045         0.994659        -13.6931         0.994659        -13.6931        0.0744478         -115.01
0.3975                 0.0850684         -95.731         0.994545        -13.8777         0.994545        -13.8777        0.0754924         -115.13
0.4028                  0.086111        -95.9554          0.99443        -14.0623          0.99443        -14.0623        0.0765368        -115.253
0.4081                 0.0871532        -96.1779         0.994315        -14.2468         0.994315        -14.2468         0.077581        -115.379
0.4134                 0.0881951        -96.3986         0.994198        -14.4314         0.994198        -14.4314         0.078625        -115.507
0.4187                 0.0892367        -96.6175          0.99408         -14.616          0.99408         -14.616        0.0796688        -115.638
0.424                   0.090278        -96.8347         0.993961        -14.8005         0.993961        -14.8005        0.0807124        -115.771
0.4293                 0.0913189        -97.0501         0.993841         -14.985         0.993841         -14.985        0.0817557        -115.906
0.4346                 0.0923595         -97.264          0.99372        -15.1695          0.99372        -15.1695        0.0827987        -116.044
0.4399                 0.0933997        -97.4763         0.993598        -15.3539         0.993598        -15.3539        0.0838415        -116.184
0.4452                 0.0944396        -97.6871         0.993474        -15.5384         0.993474        -15.5384         0.084884        -116.325
0.4505                  0.095479        -97.8964          0.99335        -15.7228          0.99335        -15.7228        0.0859263        -116.469
0.4558                 0.0965181        -98.1043         0.993225        -15.9072         0.993225        -15.9072        0.0869682        -116.615
0.4611                 0.0975567        -98.3108         0.993098        -16.0916         0.993098        -16.0916        0.0880098        -116.763
0.4664                  0.098595         -98.516         0.992971         -16.276         0.992971         -16.276        0.0890511        -116.912
0.4717                 0.0996328        -98.7199         0.992842        -16.4604         0.992842        -16.4604        0.0900921        -117.063
0.477                    0.10067        -98.9226         0.992712        -16.6447         0.992712        -16.6447        0.0911327        -117.216
0.4823                  0.101707        -99.1241         0.992582         -16.829         0.992582         -16.829        0.0921729         -117.37
0.4876                  0.102744        -99.3244          0.99245        -17.0133          0.99245        -17.0133        0.0932129        -117.526
0.4929                   0.10378        -99.5235         0.992317        -17.1976         0.992317        -17.1976        0.0942524        -117.683
0.4982                  0.104816        -99.7216         0.992183        -17.3819         0.992183        -17.3819        0.0952916        -117.842
0.5035                  0.105851        -99.9185         0.992048        -17.5661         0.992048        -17.5661        0.0963304        -118.002
0.5088                  0.106885        -100.114         0.991912        -17.7503         0.991912        -17.7503        0.0973688        -118.163
0.5141                   0.10792        -100.309         0.991775        -17.9345         0.991775        -17.9345        0.0984068        -118.326
0.5194                  0.108953        -100.503         0.991637        -18.1187         0.991637        -18.1187        0.0994443         -118.49
0.5247                  0.109987        -100.696         0.991498        -18.3029         0.991498        -18.3029         0.100482        -118.655
0.53                    0.111019        -100.888         0.991358         -18.487         0.991358         -18.487         0.101518        -118.821
0.5353                  0.112052        -101.079         0.991217        -18.6711         0.991217        -18.6711         0.102555        -118.989
0.5406                  0.113084         -101.27         0.991075        -18.8552         0.991075        -18.8552          0.10359        -119.157
0.5459                  0.114115        -101.459         0.990932        -19.0393         0.990932        -19.0393         0.104626        -119.327
0.5512                  0.115146        -101.648         0.990787        -19.2233         0.990787        -19.2233         0.105661        -119.498
0.5565                  0.116176        -101.835         0.990642        -19.4073         0.990642        -19.4073         0.106695        -119.669
0.5618                  0.117205        -102.022         0.990496        -19.5913         0.990496        -19.5913         0.107729        -119.842
0.5671                  0.118235        -102.209         0.990348        -19.7753         0.990348        -19.7753         0.108763        -120.016
0.5724                  0.119263        -102.394           0.9902        -19.9593           0.9902        -19.9593         0.109796         -120.19
0.5777                  0.120291        -102.579          0.99005        -20.1432          0.99005        -20.1432         0.110829        -120.366
0.583                   0.121319        -102.763           0.9899        -20.3271           0.9899        -20.3271         0.111861        -120.542
0.5883                  0.122346        -102.946         0.989748         -20.511         0.989748         -20.511         0.112892        -120.719
0.5936                  0.123372        -103.129         0.989596        -20.6949         0.989596        -20.6949         0.113924        -120.897
0.5989                  0.124398        -103.311         0.989442        -20.8787         0.989442        -20.8787         0.114954        -121.076
0.6042                  0.125423        -103.492         0.989288        -21.0625         0.989288        -21.0625         0.115984        -121.255
0.6095                  0.126448        -103.673         0.989132        -21.2463         0.989132        -21.2463         0.117014        -121.435
0.6148                  0.127472        -103.853         0.988976        -21.4301         0.988976        -21.4301         0.118043        -121.616
0.6201                  0.128495        -104.032         0.988818        -21.6139         0.988818        -21.6139         0.119071        -121.798
0.6254                  0.129518        -104.211          0.98866        -21.7976          0.98866        -21.7976         0.120099         -121.98
0.6307                   0.13054        -104.389           0.9885        -21.9813           0.9885        -21.9813         0.121127        -122.163
0.636                   0.131562        -104.567          0.98834         -22.165          0.98834         -22.165         0.122153        -122.347
0.6413                  0.132583        -104.744         0.988178        -22.3486         0.988178        -22.3486          0.12318        -122.531
0.6466                  0.133603        -104.921         0.988016        -22.5322         0.988016        -22.5322         0.124205        -122.716
0.6519                  0.134623        -105.097         0.987852        -22.7158         0.987852        -22.7158         0.125231        -122.902
0.6572                  0.135642        -105.272         0.987688        -22.8994         0.987688        -22.8994         0.126255        -123.088
0.6625                  0.136661        -105.447         0.987522         -23.083         0.987522         -23.083         0.127279        -123.275
0.6678                  0.137678        -105.622         0.987355        -23.2665         0.987355        -23.2665         0.128303        -123.462
0.6731                  0.138696        -105.796         0.987188          -23.45         0.987188          -23.45         0.129325         -123.65
0.6784                  0.139712         -105.97          0.98702        -23.6334          0.98702        -23.6334         0.130348        -123.838
0.6837                  0.140728        -106.143          0.98685        -23.8169          0.98685        -23.8169         0.131369        -124.027
0.689                   0.141743        -106.316          0.98668        -24.0003          0.98668        -24.0003          0.13239        -124.216
0.6943                  0.142758        -106.488         0.986508        -24.1837         0.986508        -24.1837         0.133411        -124.406
0.6996                  0.143772         -106.66         0.986336        -24.3671         0.986336        -24.3671          0.13443        -124.596
0.7049                  0.144785        -106.831         0.986162        -24.5504         0.986162        -24.5504         0.135449        -124.787
0.7102                  0.145797        -107.002         0.985988        -24.7337         0.985988        -24.7337         0.136468        -124.978
0.7155                  0.146809        -107.173         0.985813         -24.917         0.985813         -24.917         0.137486         -125.17
0.7208                   0.14782        -107.343         0.985637        -25.1003         0.985637        -25.1003         0.138503        -125.362
0.7261                  0.148831        -107.513         0.985459        -25.2835         0.985459        -25.2835          0.13952        -125.555
0.7314                  0.149841        -107.682         0.985281        -25.4667         0.985281        -25.4667         0.140536        -125.748
0.7367                   0.15085        -107.851         0.985102        -25.6499         0.985102        -25.6499         0.141551        -125.941
0.742                   0.151858         -108.02         0.984922         -25.833         0.984922         -25.833         0.142566        -126.135
0.7473                  0.152866        -108.188         0.984741        -26.0161         0.984741        -26.0161          0.14358        -126.329
0.7526                  0.153872        -108.356         0.984559        -26.1992         0.984559        -26.1992         0.144593        -126.523
0.7579                  0.154879        -108.523         0.984376        -26.3823         0.984376        -26.3823         0.145606        -126.718
0.7632                  0.155884         -108.69         0.984192        -26.5653         0.984192        -26.5653         0.146618        -126.913
0.7685                  0.156889        -108.857         0.984007        -26.7483         0.984007        -26.7483         0.147629        -127.109
0.7738                  0.157893        -109.024         0.983821        -26.9313         0.983821        -26.9313          0.14864        -127.305
0.7791                  0.158896         -109.19         0.983635        -27.1143         0.983635        -27.1143          0.14965        -127.501
0.7844                  0.159899        -109.356         0.983447        -27.2972         0.983447        -27.2972         0.150659        -127.697
0.7897                    0.1609        -109.521         0.983258        -27.4801         0.983258        -27.4801         0.151667        -127.894
0.795                   0.161901        -109.687         0.983069        -27.6629         0.983069        -27.6629         0.152675        -128.091
0.8003                  0.162902        -109.852         0.982878        -27.8458         0.982878        -27.8458         0.153682        -128.289
0.8056                  0.163901        -110.016         0.982687        -28.0286         0.982687        -28.0286         0.154689        -128.487
0.8109                    0.1649        -110.181         0.982495        -28.2113         0.982495        -28.2113         0.155695        -128.685
0.8162                  0.165898        -110.345         0.982302        -28.3941         0.982302        -28.3941           0.1567        -128.883
0.8215                  0.166895        -110.508         0.982107        -28.5768         0.982107        -28.5768         0.157704        -129.082
0.8268                  0.167892        -110.672         0.981912        -28.7595         0.981912        -28.7595         0.158707        -129.281
0.8321                  0.168887        -110.835         0.981716        -28.9421         0.981716        -28.9421          0.15971         -129.48
0.8374                  0.169882        -110.998          0.98152        -29.1248          0.98152        -29.1248         0.160712        -129.679
0.8427                  0.170876         -111.16         0.981322        -29.3073         0.981322        -29.3073         0.161714        -129.879
0.848                   0.171869        -111.323         0.981123        -29.4899         0.981123        -29.4899         0.162714        -130.079
0.8533                  0.172862        -111.485         0.980924        -29.6724         0.980924        -29.6724         0.163714        -130.279
0.8586                  0.173853        -111.647         0.980723        -29.8549         0.980723        -29.8549         0.164713        -130.479
0.8639                  0.174844        -111.808         0.980522        -30.0374         0.980522        -30.0374         0.165712         -130.68
0.8692                  0.175834         -111.97         0.980319        -30.2198         0.980319        -30.2198         0.166709        -130.881
0.8745                  0.176824        -112.131         0.980116        -30.4022         0.980116        -30.4022         0.167706        -131.082
0.8798                  0.177812        -112.292         0.979912        -30.5846         0.979912        -30.5846         0.168702        -131.283
0.8851                    0.1788        -112.452         0.979707         -30.767         0.979707         -30.767         0.169697        -131.485
0.8904                  0.179787        -112.613         0.979501        -30.9493         0.979501        -30.9493         0.170692        -131.686
0.8957                  0.180772        -112.773         0.979295        -31.1315         0.979295        -31.1315         0.171686        -131.888
0.901                   0.181758        -112.933         0.979087        -31.3138         0.979087        -31.3138         0.172679        -132.091
0.9063                  0.182742        -113.092         0.978879         -31.496         0.978879         -31.496         0.173671        -132.293
0.9116                  0.183725        -113.252         0.978669        -31.6782         0.978669        -31.6782         0.174662        -132.495
0.9169                  0.184708        -113.411         0.978459        -31.8603         0.978459        -31.8603         0.175653        -132.698
0.9222                   0.18569         -113.57         0.978248        -32.0424         0.978248        -32.0424         0.176642        -132.901
0.9275                  0.186671        -113.729         0.978036        -32.2245         0.978036        -32.2245         0.177631        -133.104
0.9328                  0.187651        -113.887         0.977823        -32.4066         0.977823        -32.4066          0.17862        -133.307
0.9381                   0.18863        -114.046         0.977609        -32.5886         0.977609        -32.5886         0.179607        -133.511
0.9434                  0.189608        -114.204         0.977395        -32.7706         0.977395        -32.7706         0.180594        -133.714
0.9487                  0.190586        -114.362         0.977179        -32.9525         0.977179        -32.9525         0.181579        -133.918
0.954                   0.191562        -114.519         0.976963        -33.1344         0.976963        -33.1344         0.182564        -134.122
0.9593                  0.192538        -114.677         0.976746        -33.3163         0.976746        -33.3163         0.183548        -134.326
0.9646                  0.193513        -114.834         0.976528        -33.4982         0.976528        -33.4982         0.184532         -134.53
0.9699                  0.194487        -114.992         0.976309          -33.68         0.976309          -33.68         0.185514        -134.735
0.9752                   0.19546        -115.148          0.97609        -33.8618          0.97609        -33.8618         0.186496        -134.939
0.9805                  0.196432        -115.305         0.975869        -34.0435         0.975869        -34.0435         0.187476        -135.144
0.9858                  0.197404        -115.462         0.975648        -34.2252         0.975648        -34.2252         0.188456        -135.349
0.9911                  0.198374        -115.618         0.975426        -34.4069         0.975426        -34.4069         0.189436        -135.554
0.9964                  0.199344        -115.774         0.975203        -34.5885         0.975203        -34.5885         0.190414        -135.759
1.0017                  0.200313        -115.931         0.974979        -34.7701         0.974979        -34.7701         0.191391        -135.964