! TOUCHSTONE file generated by CST MICROWAVE STUDIO
! Date and time: Tue Jan  7 09:43:45 2020
! Project name: OSHPark_FR408_Transition2.cst
! Parameters = {GND_Plane_XMax=11.5; Cap_Disk_XOffset=0; Cap_Disk2_YCenter=-1.03; Cap_Disk_YCenter=1.03; Cap_Disk_XCenter=7.39; Cap_Disk_Radius=0.5; BottomSupport_Left_YMax=4.76; BottomSupport_Left_YMin=3.74; BottomSupport_Right_YMax=-3.74; BottomSupport_Right_YMin=-4.76; BottomSupport_XMax=11.64; BottomSupport_XMin=6.89; BottomSupport_ZMax=-1.64084; BottomSupport_ZMin=-3.58; Cu1_Thickness=0.03556; Cu2_Thickness=0.01778; Fr408Core_Thickness=1.1938; GND_Plane_Offset=2.9; PCBThickness=1.6256; Prepreg1_Zmin=-0.20574; Prepreg_Thickness=0.17018; RFTraceYMax=0.17145; RFTrace_XMax=15; RFTrace_XMin=11.46; RFTrace_YMin=-0.17145; SMA_CenterCond_Inner_XMax=11.64; SMA_CenterCond_Radius=0.6; SMA_Dielectric_InnerRadius=0.6; SMA_Dielectric_OuterRadius=2; SMA_Dielectric_XMax=5.62; SMA_Dielectric_XMin=0; SMA_Dielectric_YCenter=0; SMA_Dielectric_ZCenter=0; SMA_Footprint_Center_XMax=12.49; SMA_Footprint_Center_XMin=7.74; SMA_Footprint_Center_YMax=0.75; SMA_Footprint_Center_YMin=-0.75; SMA_OuterCond_InnerRadius=2; SMA_OuterCond_OuterRadius=3; SMA_OuterCond_XMax=6.89; SMA_XMax=6.67; SMA_XMin=0; SMA_YCenter=0; SMA_ZCenter=0; TopSupport_ZMax=1.02; TopSupport_ZMin=0; Via1_XCenter=7.5; Via1_YCenter=-4.25; Via2_XCenter=8.75; Via2_YCenter=-4.25; Via3_XCenter=10; Via3_YCenter=-4.25; Via4_XCenter=11.25; Via4_YCenter=-4.25; Via5_XCenter=7.5; Via5_YCenter=4.25; Via6_XCenter=8.75; Via6_YCenter=4.25; Via7_XCenter=10; Via7_YCenter=4.25; Via8_XCenter=11.25; Via8_YCenter=4.25; ViaInnerRadius=0; ViaOuterRadius=0.381}
! Header version: 2015
! Port assignment regex: !\s*Touchstone port\s*([0-9]+)\s*=\s*CST MWS port\s*([0-9]+)\s*\(\"(.*)\"\)(\s*mode\s*([0-9]+))?.*
! Touchstone port assignment:
! Touchstone port 1 = CST MWS port 1 ("")
! Touchstone port 2 = CST MWS port 2 ("")
# GHz S MA R 50
0                        0.10204               0         0.904767               0         0.904767               0        0.0884026               0
0.0053                 0.0107975         -28.878         0.999954       -0.161286         0.999954       -0.161286        0.0108184         151.019
0.0106                 0.0109248        -30.1193         0.999937       -0.310693         0.999937       -0.310693        0.0107158         152.044
0.0159                 0.0110033        -31.1591          0.99992       -0.463374          0.99992       -0.463374        0.0106195         152.749
0.0212                 0.0110816        -32.1094         0.999903       -0.616871         0.999903       -0.616871         0.010537         153.413
0.0265                 0.0111645        -33.0057         0.999887       -0.770692         0.999887       -0.770692        0.0104652         154.075
0.0318                 0.0112446          -33.89          0.99987       -0.924678          0.99987       -0.924678        0.0103933         154.727
0.0371                 0.0113306        -34.7394         0.999853        -1.07875         0.999853        -1.07875        0.0103296         155.394
0.0424                 0.0114309        -35.5254         0.999836        -1.23288         0.999836        -1.23288        0.0102838           156.1
0.0477                  0.011528        -36.3126          0.99982        -1.38705          0.99982        -1.38705        0.0102357           156.8
0.053                  0.0116223        -37.1019         0.999803        -1.54125         0.999803        -1.54125        0.0101853         157.495
0.0583                 0.0117122        -37.9007         0.999786        -1.69547         0.999786        -1.69547        0.0101307         158.184
0.0636                 0.0118057        -38.6798         0.999769        -1.84971         0.999769        -1.84971        0.0100812         158.885
0.0689                 0.0119025        -39.4401         0.999752        -2.00395         0.999752        -2.00395        0.0100365         159.598
0.0742                 0.0120013        -40.1872         0.999735        -2.15821         0.999735        -2.15821       0.00999502         160.319
0.0795                 0.0121012        -40.9238         0.999718        -2.31247         0.999718        -2.31247         0.009956         161.046
0.0848                 0.0122021        -41.6514         0.999701        -2.46674         0.999701        -2.46674       0.00991904         161.779
0.0901                 0.0123046        -42.3676         0.999684        -2.62101         0.999684        -2.62101       0.00988496         162.519
0.0954                 0.0124085        -43.0724         0.999667        -2.77528         0.999667        -2.77528       0.00985386         163.264
0.1007                 0.0125138        -43.7667         0.999649        -2.92956         0.999649        -2.92956       0.00982553         164.015
0.106                  0.0126204        -44.4508         0.999632        -3.08384         0.999632        -3.08384       0.00979995          164.77
0.1113                 0.0127282         -45.125         0.999615        -3.23812         0.999615        -3.23812       0.00977708         165.531
0.1166                 0.0128372         -45.789         0.999597        -3.39241         0.999597        -3.39241       0.00975709         166.295
0.1219                 0.0129475         -46.443          0.99958        -3.54669          0.99958        -3.54669       0.00973999         167.062
0.1272                  0.013059        -47.0872         0.999562        -3.70098         0.999562        -3.70098       0.00972574         167.833
0.1325                 0.0131716         -47.722         0.999545        -3.85527         0.999545        -3.85527       0.00971435         168.606
0.1378                 0.0132854        -48.3474         0.999527        -4.00956         0.999527        -4.00956        0.0097058          169.38
0.1431                 0.0134002        -48.9634          0.99951        -4.16385          0.99951        -4.16385       0.00970015         170.156
0.1484                 0.0135161        -49.5704         0.999492        -4.31814         0.999492        -4.31814        0.0096974         170.933
0.1537                 0.0136331        -50.1684         0.999474        -4.47243         0.999474        -4.47243       0.00969753          171.71
0.159                  0.0137511        -50.7577         0.999457        -4.62673         0.999457        -4.62673       0.00970054         172.486
0.1643                   0.01387        -51.3383         0.999439        -4.78102         0.999439        -4.78102       0.00970642         173.261
0.1696                 0.0139899        -51.9104         0.999421        -4.93531         0.999421        -4.93531       0.00971518         174.034
0.1749                 0.0141108        -52.4742         0.999403        -5.08961         0.999403        -5.08961        0.0097268         174.805
0.1802                 0.0142325        -53.0299         0.999385         -5.2439         0.999385         -5.2439       0.00974127         175.574
0.1855                 0.0143552        -53.5775         0.999367         -5.3982         0.999367         -5.3982       0.00975857         176.339
0.1908                 0.0144787        -54.1173         0.999349        -5.55249         0.999349        -5.55249       0.00977871           177.1
0.1961                  0.014603        -54.6493         0.999331        -5.70678         0.999331        -5.70678       0.00980164         177.857
0.2014                 0.0147281        -55.1738         0.999313        -5.86108         0.999313        -5.86108       0.00982735         178.608
0.2067                 0.0148541        -55.6908         0.999295        -6.01537         0.999295        -6.01537       0.00985582         179.354
0.212                  0.0149808        -56.2006         0.999277        -6.16967         0.999277        -6.16967       0.00988701        -179.905
0.2173                 0.0151082        -56.7032         0.999258        -6.32396         0.999258        -6.32396       0.00992092        -179.171
0.2226                 0.0152364        -57.1988          0.99924        -6.47826          0.99924        -6.47826       0.00995751        -178.444
0.2279                 0.0153653        -57.6875         0.999222        -6.63255         0.999222        -6.63255       0.00999673        -177.725
0.2332                 0.0154949        -58.1695         0.999203        -6.78685         0.999203        -6.78685        0.0100386        -177.012
0.2385                 0.0156251         -58.645         0.999185        -6.94114         0.999185        -6.94114         0.010083        -176.308
0.2438                 0.0157561        -59.1139         0.999166        -7.09544         0.999166        -7.09544        0.0101299        -175.613
0.2491                 0.0158876        -59.5764         0.999148        -7.24973         0.999148        -7.24973        0.0101794        -174.926
0.2544                 0.0160197        -60.0328         0.999129        -7.40402         0.999129        -7.40402        0.0102313        -174.248
0.2597                 0.0161525        -60.4832         0.999111        -7.55832         0.999111        -7.55832        0.0102857         -173.58
0.265                  0.0162858        -60.9275         0.999092        -7.71261         0.999092        -7.71261        0.0103425        -172.921
0.2703                 0.0164197         -61.366         0.999073         -7.8669         0.999073         -7.8669        0.0104016        -172.272
0.2756                 0.0165542        -61.7987         0.999055         -8.0212         0.999055         -8.0212         0.010463        -171.634
0.2809                 0.0166892        -62.2259         0.999036        -8.17549         0.999036        -8.17549        0.0105267        -171.005
0.2862                 0.0168247        -62.6475         0.999017        -8.32978         0.999017        -8.32978        0.0105925        -170.387
0.2915                 0.0169607        -63.0638         0.998998        -8.48408         0.998998        -8.48408        0.0106606         -169.78
0.2968                 0.0170972        -63.4748         0.998979        -8.63837         0.998979        -8.63837        0.0107308        -169.183
0.3021                 0.0172342        -63.8806          0.99896        -8.79266          0.99896        -8.79266        0.0108031        -168.597
0.3074                 0.0173717        -64.2813         0.998941        -8.94695         0.998941        -8.94695        0.0108775        -168.022
0.3127                 0.0175096        -64.6771         0.998922        -9.10124         0.998922        -9.10124        0.0109539        -167.458
0.318                   0.017648        -65.0681         0.998903        -9.25553         0.998903        -9.25553        0.0110322        -166.905
0.3233                 0.0177868        -65.4542         0.998884        -9.40982         0.998884        -9.40982        0.0111124        -166.363
0.3286                  0.017926        -65.8357         0.998865        -9.56411         0.998865        -9.56411        0.0111946        -165.833
0.3339                 0.0180656        -66.2126         0.998846         -9.7184         0.998846         -9.7184        0.0112785        -165.313
0.3392                 0.0182056         -66.585         0.998826        -9.87269         0.998826        -9.87269        0.0113642        -164.804
0.3445                 0.0183459        -66.9531         0.998807         -10.027         0.998807         -10.027        0.0114517        -164.307
0.3498                 0.0184867        -67.3168         0.998788        -10.1813         0.998788        -10.1813        0.0115409        -163.821
0.3551                 0.0186278        -67.6763         0.998768        -10.3356         0.998768        -10.3356        0.0116318        -163.345
0.3604                 0.0187693        -68.0317         0.998749        -10.4899         0.998749        -10.4899        0.0117243        -162.881
0.3657                 0.0189111         -68.383         0.998729        -10.6441         0.998729        -10.6441        0.0118184        -162.427
0.371                  0.0190532        -68.7304          0.99871        -10.7984          0.99871        -10.7984         0.011914        -161.984
0.3763                 0.0191957        -69.0738          0.99869        -10.9527          0.99869        -10.9527        0.0120111        -161.552
0.3816                 0.0193385        -69.4135          0.99867         -11.107          0.99867         -11.107        0.0121097         -161.13
0.3869                 0.0194816        -69.7494         0.998651        -11.2613         0.998651        -11.2613        0.0122097        -160.719
0.3922                  0.019625        -70.0817         0.998631        -11.4156         0.998631        -11.4156        0.0123111        -160.318
0.3975                 0.0197686        -70.4103         0.998611        -11.5699         0.998611        -11.5699        0.0124139        -159.928
0.4028                 0.0199126        -70.7354         0.998591        -11.7241         0.998591        -11.7241         0.012518        -159.547
0.4081                 0.0200568        -71.0571         0.998571        -11.8784         0.998571        -11.8784        0.0126234        -159.177
0.4134                 0.0202013        -71.3754         0.998552        -12.0327         0.998552        -12.0327          0.01273        -158.817
0.4187                  0.020346        -71.6904         0.998532         -12.187         0.998532         -12.187        0.0128379        -158.466
0.424                   0.020491        -72.0021         0.998512        -12.3413         0.998512        -12.3413        0.0129469        -158.125
0.4293                 0.0206363        -72.3106         0.998492        -12.4956         0.998492        -12.4956        0.0130571        -157.793
0.4346                 0.0207817        -72.6159         0.998471        -12.6498         0.998471        -12.6498        0.0131685        -157.471
0.4399                 0.0209274        -72.9182         0.998451        -12.8041         0.998451        -12.8041        0.0132809        -157.157
0.4452                 0.0210733        -73.2175         0.998431        -12.9584         0.998431        -12.9584        0.0133943        -156.853
0.4505                 0.0212195        -73.5139         0.998411        -13.1127         0.998411        -13.1127        0.0135088        -156.558
0.4558                 0.0213658        -73.8073         0.998391         -13.267         0.998391         -13.267        0.0136244        -156.271
0.4611                 0.0215123        -74.0979          0.99837        -13.4213          0.99837        -13.4213        0.0137409        -155.993
0.4664                 0.0216591        -74.3857          0.99835        -13.5755          0.99835        -13.5755        0.0138583        -155.724
0.4717                  0.021806        -74.6708          0.99833        -13.7298          0.99833        -13.7298        0.0139767        -155.462
0.477                  0.0219531        -74.9531         0.998309        -13.8841         0.998309        -13.8841         0.014096        -155.209
0.4823                 0.0221004        -75.2328         0.998289        -14.0384         0.998289        -14.0384        0.0142161        -154.964
0.4876                 0.0222478          -75.51         0.998268        -14.1927         0.998268        -14.1927        0.0143371        -154.727
0.4929                 0.0223955        -75.7846         0.998248        -14.3469         0.998248        -14.3469         0.014459        -154.497
0.4982                 0.0225432        -76.0567         0.998227        -14.5012         0.998227        -14.5012        0.0145816        -154.275
0.5035                 0.0226912        -76.3263         0.998206        -14.6555         0.998206        -14.6555         0.014705        -154.061
0.5088                 0.0228393        -76.5935         0.998186        -14.8098         0.998186        -14.8098        0.0148292        -153.853
0.5141                 0.0229875        -76.8584         0.998165         -14.964         0.998165         -14.964        0.0149541        -153.653
0.5194                 0.0231359         -77.121         0.998144        -15.1183         0.998144        -15.1183        0.0150798         -153.46
0.5247                 0.0232844        -77.3813         0.998123        -15.2726         0.998123        -15.2726        0.0152061        -153.274
0.53                    0.023433        -77.6393         0.998102        -15.4269         0.998102        -15.4269        0.0153331        -153.094
0.5353                 0.0235818        -77.8951         0.998081        -15.5811         0.998081        -15.5811        0.0154608        -152.922
0.5406                 0.0237307        -78.1488         0.998061        -15.7354         0.998061        -15.7354        0.0155891        -152.755
0.5459                 0.0238797        -78.4004          0.99804        -15.8897          0.99804        -15.8897         0.015718        -152.595
0.5512                 0.0240288        -78.6499         0.998018         -16.044         0.998018         -16.044        0.0158476        -152.441
0.5565                  0.024178        -78.8973         0.997997        -16.1982         0.997997        -16.1982        0.0159777        -152.294
0.5618                 0.0243274        -79.1427         0.997976        -16.3525         0.997976        -16.3525        0.0161084        -152.152
0.5671                 0.0244768        -79.3862         0.997955        -16.5068         0.997955        -16.5068        0.0162397        -152.016
0.5724                 0.0246264        -79.6277         0.997934         -16.661         0.997934         -16.661        0.0163715        -151.886
0.5777                  0.024776        -79.8673         0.997913        -16.8153         0.997913        -16.8153        0.0165038        -151.761
0.583                  0.0249257        -80.1051         0.997891        -16.9696         0.997891        -16.9696        0.0166367        -151.642
0.5883                 0.0250755        -80.3409          0.99787        -17.1239          0.99787        -17.1239          0.01677        -151.529
0.5936                 0.0252254         -80.575         0.997849        -17.2781         0.997849        -17.2781        0.0169038        -151.421
0.5989                 0.0253754        -80.8073         0.997827        -17.4324         0.997827        -17.4324        0.0170381        -151.318
0.6042                 0.0255254        -81.0378         0.997806        -17.5867         0.997806        -17.5867        0.0171729         -151.22
0.6095                 0.0256755        -81.2667         0.997784        -17.7409         0.997784        -17.7409         0.017308        -151.127
0.6148                 0.0258257        -81.4938         0.997763        -17.8952         0.997763        -17.8952        0.0174437        -151.039
0.6201                  0.025976        -81.7192         0.997741        -18.0495         0.997741        -18.0495        0.0175797        -150.955
0.6254                 0.0261263         -81.943         0.997719        -18.2037         0.997719        -18.2037        0.0177161        -150.877
0.6307                 0.0262767        -82.1652         0.997698         -18.358         0.997698         -18.358        0.0178529        -150.803
0.636                  0.0264271        -82.3859         0.997676        -18.5122         0.997676        -18.5122        0.0179902        -150.733
0.6413                 0.0265776        -82.6049         0.997654        -18.6665         0.997654        -18.6665        0.0181277        -150.668
0.6466                 0.0267281        -82.8224         0.997632        -18.8208         0.997632        -18.8208        0.0182657        -150.607
0.6519                 0.0268787        -83.0385          0.99761         -18.975          0.99761         -18.975         0.018404        -150.551
0.6572                 0.0270293         -83.253         0.997589        -19.1293         0.997589        -19.1293        0.0185426        -150.499
0.6625                   0.02718        -83.4661         0.997567        -19.2836         0.997567        -19.2836        0.0186816         -150.45
0.6678                 0.0273307        -83.6777         0.997545        -19.4378         0.997545        -19.4378        0.0188209        -150.406
0.6731                 0.0274814        -83.8879         0.997523        -19.5921         0.997523        -19.5921        0.0189605        -150.366
0.6784                 0.0276322        -84.0968         0.997501        -19.7463         0.997501        -19.7463        0.0191004        -150.329
0.6837                  0.027783        -84.3042         0.997478        -19.9006         0.997478        -19.9006        0.0192406        -150.297
0.689                  0.0279338        -84.5103         0.997456        -20.0549         0.997456        -20.0549        0.0193811        -150.267
0.6943                 0.0280846        -84.7151         0.997434        -20.2091         0.997434        -20.2091        0.0195218        -150.242
0.6996                 0.0282355        -84.9186         0.997412        -20.3634         0.997412        -20.3634        0.0196628         -150.22
0.7049                 0.0283864        -85.1207          0.99739        -20.5176          0.99739        -20.5176        0.0198041        -150.202
0.7102                 0.0285373        -85.3217         0.997367        -20.6719         0.997367        -20.6719        0.0199457        -150.187
0.7155                 0.0286883        -85.5213         0.997345        -20.8261         0.997345        -20.8261        0.0200874        -150.175
0.7208                 0.0288392        -85.7198         0.997323        -20.9804         0.997323        -20.9804        0.0202294        -150.167
0.7261                 0.0289902         -85.917           0.9973        -21.1346           0.9973        -21.1346        0.0203717        -150.162
0.7314                 0.0291411         -86.113         0.997278        -21.2889         0.997278        -21.2889        0.0205142         -150.16
0.7367                 0.0292921        -86.3079         0.997255        -21.4431         0.997255        -21.4431        0.0206568        -150.161
0.742                  0.0294431        -86.5016         0.997233        -21.5974         0.997233        -21.5974        0.0207997        -150.165
0.7473                  0.029594        -86.6941          0.99721        -21.7517          0.99721        -21.7517        0.0209428        -150.172
0.7526                  0.029745        -86.8855         0.997187        -21.9059         0.997187        -21.9059        0.0210861        -150.183
0.7579                  0.029896        -87.0759         0.997165        -22.0602         0.997165        -22.0602        0.0212296        -150.196
0.7632                  0.030047        -87.2651         0.997142        -22.2144         0.997142        -22.2144        0.0213733        -150.211
0.7685                 0.0301979        -87.4533         0.997119        -22.3686         0.997119        -22.3686        0.0215171         -150.23
0.7738                 0.0303489        -87.6403         0.997096        -22.5229         0.997096        -22.5229        0.0216611        -150.251
0.7791                 0.0304998        -87.8264         0.997073        -22.6771         0.997073        -22.6771        0.0218053        -150.275
0.7844                 0.0306508        -88.0114         0.997051        -22.8314         0.997051        -22.8314        0.0219497        -150.302
0.7897                 0.0308017        -88.1954         0.997028        -22.9856         0.997028        -22.9856        0.0220942        -150.331
0.795                  0.0309526        -88.3784         0.997005        -23.1399         0.997005        -23.1399        0.0222388        -150.363
0.8003                 0.0311035        -88.5604         0.996982        -23.2941         0.996982        -23.2941        0.0223836        -150.397
0.8056                 0.0312543        -88.7414         0.996959        -23.4484         0.996959        -23.4484        0.0225285        -150.433
0.8109                 0.0314052        -88.9215         0.996935        -23.6026         0.996935        -23.6026        0.0226736        -150.472
0.8162                  0.031556        -89.1007         0.996912        -23.7569         0.996912        -23.7569        0.0228188        -150.513
0.8215                 0.0317068        -89.2789         0.996889        -23.9111         0.996889        -23.9111        0.0229641        -150.557
0.8268                 0.0318576        -89.4561         0.996866        -24.0653         0.996866        -24.0653        0.0231096        -150.603
0.8321                 0.0320083        -89.6325         0.996843        -24.2196         0.996843        -24.2196        0.0232551        -150.651
0.8374                  0.032159         -89.808         0.996819        -24.3738         0.996819        -24.3738        0.0234008        -150.701
0.8427                 0.0323097        -89.9826         0.996796        -24.5281         0.996796        -24.5281        0.0235466        -150.754
0.848                  0.0324604        -90.1563         0.996773        -24.6823         0.996773        -24.6823        0.0236924        -150.808
0.8533                  0.032611        -90.3292         0.996749        -24.8365         0.996749        -24.8365        0.0238384        -150.865
0.8586                 0.0327616        -90.5012         0.996726        -24.9908         0.996726        -24.9908        0.0239845        -150.923
0.8639                 0.0329121        -90.6723         0.996702         -25.145         0.996702         -25.145        0.0241307        -150.984
0.8692                 0.0330626        -90.8427         0.996679        -25.2993         0.996679        -25.2993        0.0242769        -151.047
0.8745                 0.0332131        -91.0122         0.996655        -25.4535         0.996655        -25.4535        0.0244232        -151.111
0.8798                 0.0333635        -91.1809         0.996632        -25.6077         0.996632        -25.6077        0.0245697        -151.178
0.8851                 0.0335139        -91.3489         0.996608         -25.762         0.996608         -25.762        0.0247161        -151.246
0.8904                 0.0336642         -91.516         0.996584        -25.9162         0.996584        -25.9162        0.0248627        -151.316
0.8957                 0.0338145        -91.6824         0.996561        -26.0704         0.996561        -26.0704        0.0250093        -151.388
0.901                  0.0339648         -91.848         0.996537        -26.2247         0.996537        -26.2247         0.025156        -151.462
0.9063                 0.0341149        -92.0129         0.996513        -26.3789         0.996513        -26.3789        0.0253028        -151.537
0.9116                 0.0342651         -92.177         0.996489        -26.5331         0.996489        -26.5331        0.0254496        -151.614
0.9169                 0.0344152        -92.3403         0.996465        -26.6873         0.996465        -26.6873        0.0255965        -151.693
0.9222                 0.0345652         -92.503         0.996441        -26.8416         0.996441        -26.8416        0.0257434        -151.773
0.9275                 0.0347152        -92.6649         0.996417        -26.9958         0.996417        -26.9958        0.0258904        -151.856
0.9328                 0.0348651        -92.8261         0.996393          -27.15         0.996393          -27.15        0.0260374        -151.939
0.9381                  0.035015        -92.9867         0.996369        -27.3043         0.996369        -27.3043        0.0261844        -152.025
0.9434                 0.0351648        -93.1465         0.996345        -27.4585         0.996345        -27.4585        0.0263315        -152.112
0.9487                 0.0353145        -93.3056         0.996321        -27.6127         0.996321        -27.6127        0.0264787          -152.2
0.954                  0.0354642        -93.4641         0.996297        -27.7669         0.996297        -27.7669        0.0266259         -152.29
0.9593                 0.0356139        -93.6219         0.996273        -27.9212         0.996273        -27.9212        0.0267731        -152.381
0.9646                 0.0357634        -93.7791         0.996249        -28.0754         0.996249        -28.0754        0.0269203        -152.474
0.9699                 0.0359129        -93.9356         0.996224        -28.2296         0.996224        -28.2296        0.0270676        -152.568
0.9752                 0.0360624        -94.0914           0.9962        -28.3838           0.9962        -28.3838        0.0272148        -152.664
0.9805                 0.0362117        -94.2467         0.996176        -28.5381         0.996176        -28.5381        0.0273622        -152.761
0.9858                  0.036361        -94.4012         0.996151        -28.6923         0.996151        -28.6923        0.0275095         -152.86
0.9911                 0.0365103        -94.5552         0.996127        -28.8465         0.996127        -28.8465        0.0276568        -152.959
0.9964                 0.0366594        -94.7086         0.996103        -29.0007         0.996103        -29.0007        0.0278042         -153.06