! TOUCHSTONE file generated by CST MICROWAVE STUDIO
! Date and time: Tue Jan  7 09:43:32 2020
! Project name: OSHPark_FR408_Transition2.cst
! Parameters = {GND_Plane_XMax=12.75; Cap_Disk_XOffset=0; Cap_Disk2_YCenter=-1.03; Cap_Disk_YCenter=1.03; Cap_Disk_XCenter=7.39; Cap_Disk_Radius=0.5; BottomSupport_Left_YMax=4.76; BottomSupport_Left_YMin=3.74; BottomSupport_Right_YMax=-3.74; BottomSupport_Right_YMin=-4.76; BottomSupport_XMax=11.64; BottomSupport_XMin=6.89; BottomSupport_ZMax=-1.64084; BottomSupport_ZMin=-3.58; Cu1_Thickness=0.03556; Cu2_Thickness=0.01778; Fr408Core_Thickness=1.1938; GND_Plane_Offset=2.85; PCBThickness=1.6256; Prepreg1_Zmin=-0.20574; Prepreg_Thickness=0.17018; RFTraceYMax=0.17145; RFTrace_XMax=15; RFTrace_XMin=11.46; RFTrace_YMin=-0.17145; SMA_CenterCond_Inner_XMax=11.64; SMA_CenterCond_Radius=0.6; SMA_Dielectric_InnerRadius=0.6; SMA_Dielectric_OuterRadius=2; SMA_Dielectric_XMax=5.62; SMA_Dielectric_XMin=0; SMA_Dielectric_YCenter=0; SMA_Dielectric_ZCenter=0; SMA_Footprint_Center_XMax=12.49; SMA_Footprint_Center_XMin=7.74; SMA_Footprint_Center_YMax=0.75; SMA_Footprint_Center_YMin=-0.75; SMA_OuterCond_InnerRadius=2; SMA_OuterCond_OuterRadius=3; SMA_OuterCond_XMax=6.89; SMA_XMax=6.67; SMA_XMin=0; SMA_YCenter=0; SMA_ZCenter=0; TopSupport_ZMax=1.02; TopSupport_ZMin=0; Via1_XCenter=7.5; Via1_YCenter=-4.25; Via2_XCenter=8.75; Via2_YCenter=-4.25; Via3_XCenter=10; Via3_YCenter=-4.25; Via4_XCenter=11.25; Via4_YCenter=-4.25; Via5_XCenter=7.5; Via5_YCenter=4.25; Via6_XCenter=8.75; Via6_YCenter=4.25; Via7_XCenter=10; Via7_YCenter=4.25; Via8_XCenter=11.25; Via8_YCenter=4.25; ViaInnerRadius=0; ViaOuterRadius=0.381}
! Header version: 2015
! Port assignment regex: !\s*Touchstone port\s*([0-9]+)\s*=\s*CST MWS port\s*([0-9]+)\s*\(\"(.*)\"\)(\s*mode\s*([0-9]+))?.*
! Touchstone port assignment:
! Touchstone port 1 = CST MWS port 1 ("")
! Touchstone port 2 = CST MWS port 2 ("")
# GHz S MA R 50
0                      0.0618238               0         0.948466               0         0.948466               0        0.0411584               0
0.0053                 0.0122119        -23.9546         0.999939       -0.158847         0.999939       -0.158847        0.0124402         153.792
0.0106                 0.0122138        -24.0584         0.999923       -0.306104         0.999923       -0.306104        0.0124461          153.62
0.0159                  0.012181        -23.9405         0.999909       -0.456679         0.999909       -0.456679        0.0124673         153.182
0.0212                 0.0121445        -23.7561         0.999894       -0.608082         0.999894       -0.608082         0.012497          152.69
0.0265                 0.0121081        -23.5406          0.99988       -0.759816          0.99988       -0.759816        0.0125318          152.18
0.0318                 0.0120692        -23.3144         0.999865       -0.911716         0.999865       -0.911716        0.0125666         151.656
0.0371                 0.0120321        -23.0748         0.999851        -1.06371         0.999851        -1.06371        0.0126044         151.132
0.0424                 0.0120011        -22.8163         0.999836        -1.21576         0.999836        -1.21576         0.012649         150.619
0.0477                  0.011968        -22.5576         0.999822        -1.36785         0.999822        -1.36785         0.012692           150.1
0.053                  0.0119329        -22.2991         0.999807        -1.51998         0.999807        -1.51998        0.0127334         149.576
0.0583                 0.0118951        -22.0428         0.999793        -1.67212         0.999793        -1.67212        0.0127724         149.045
0.0636                 0.0118585        -21.7814         0.999778        -1.82427         0.999778        -1.82427        0.0128127         148.518
0.0689                  0.011823        -21.5155         0.999763        -1.97644         0.999763        -1.97644        0.0128541         147.993
0.0742                  0.011788        -21.2465         0.999749        -2.12862         0.999749        -2.12862        0.0128959         147.469
0.0795                 0.0117531        -20.9752         0.999734         -2.2808         0.999734         -2.2808        0.0129379         146.947
0.0848                 0.0117182         -20.702         0.999719        -2.43299         0.999719        -2.43299          0.01298         146.425
0.0901                 0.0116837        -20.4263         0.999704        -2.58519         0.999704        -2.58519        0.0130222         145.904
0.0954                 0.0116495        -20.1481         0.999689        -2.73739         0.999689        -2.73739        0.0130648         145.385
0.1007                 0.0116157        -19.8677         0.999675        -2.88959         0.999675        -2.88959        0.0131076         144.867
0.106                  0.0115821        -19.5851          0.99966         -3.0418          0.99966         -3.0418        0.0131506          144.35
0.1113                 0.0115488        -19.3004         0.999645        -3.19401         0.999645        -3.19401        0.0131937         143.835
0.1166                 0.0115159        -19.0135          0.99963        -3.34622          0.99963        -3.34622        0.0132371         143.321
0.1219                 0.0114833        -18.7243         0.999615        -3.49843         0.999615        -3.49843        0.0132806         142.808
0.1272                  0.011451        -18.4331           0.9996        -3.65064           0.9996        -3.65064        0.0133243         142.297
0.1325                 0.0114191        -18.1397         0.999585        -3.80286         0.999585        -3.80286        0.0133683         141.787
0.1378                 0.0113875        -17.8442          0.99957        -3.95508          0.99957        -3.95508        0.0134123         141.278
0.1431                 0.0113562        -17.5465         0.999555         -4.1073         0.999555         -4.1073        0.0134566         140.771
0.1484                 0.0113253        -17.2468         0.999539        -4.25952         0.999539        -4.25952        0.0135011         140.265
0.1537                 0.0112948        -16.9449         0.999524        -4.41174         0.999524        -4.41174        0.0135457          139.76
0.159                  0.0112646         -16.641         0.999509        -4.56396         0.999509        -4.56396        0.0135905         139.257
0.1643                 0.0112348         -16.335         0.999494        -4.71618         0.999494        -4.71618        0.0136355         138.755
0.1696                 0.0112054        -16.0269         0.999478        -4.86841         0.999478        -4.86841        0.0136806         138.255
0.1749                 0.0111763        -15.7167         0.999463        -5.02063         0.999463        -5.02063        0.0137259         137.755
0.1802                 0.0111476        -15.4044         0.999448        -5.17286         0.999448        -5.17286        0.0137714         137.257
0.1855                 0.0111193        -15.0901         0.999432        -5.32508         0.999432        -5.32508        0.0138171         136.761
0.1908                 0.0110914        -14.7738         0.999417        -5.47731         0.999417        -5.47731        0.0138629         136.265
0.1961                 0.0110639        -14.4554         0.999401        -5.62954         0.999401        -5.62954        0.0139089         135.771
0.2014                 0.0110368        -14.1349         0.999386        -5.78177         0.999386        -5.78177         0.013955         135.279
0.2067                 0.0110101        -13.8124          0.99937        -5.93399          0.99937        -5.93399        0.0140013         134.787
0.212                  0.0109838         -13.488         0.999355        -6.08622         0.999355        -6.08622        0.0140477         134.297
0.2173                 0.0109579        -13.1615         0.999339        -6.23845         0.999339        -6.23845        0.0140943         133.808
0.2226                 0.0109324        -12.8329         0.999324        -6.39068         0.999324        -6.39068        0.0141411          133.32
0.2279                 0.0109073        -12.5025         0.999308        -6.54291         0.999308        -6.54291         0.014188         132.834
0.2332                 0.0108827          -12.17         0.999292        -6.69514         0.999292        -6.69514        0.0142351         132.348
0.2385                 0.0108585        -11.8355         0.999277        -6.84737         0.999277        -6.84737        0.0142823         131.864
0.2438                 0.0108347        -11.4991         0.999261        -6.99961         0.999261        -6.99961        0.0143297         131.381
0.2491                 0.0108114        -11.1608         0.999245        -7.15184         0.999245        -7.15184        0.0143772           130.9
0.2544                 0.0107885        -10.8205         0.999229        -7.30407         0.999229        -7.30407        0.0144249         130.419
0.2597                  0.010766        -10.4784         0.999213         -7.4563         0.999213         -7.4563        0.0144728          129.94
0.265                   0.010744        -10.1343         0.999197        -7.60853         0.999197        -7.60853        0.0145207         129.462
0.2703                 0.0107224        -9.78831         0.999181        -7.76077         0.999181        -7.76077        0.0145689         128.985
0.2756                 0.0107014        -9.44049         0.999166          -7.913         0.999166          -7.913        0.0146172         128.509
0.2809                 0.0106807        -9.09082          0.99915        -8.06523          0.99915        -8.06523        0.0146656         128.034
0.2862                 0.0106606        -8.73932         0.999133        -8.21747         0.999133        -8.21747        0.0147142         127.561
0.2915                 0.0106409        -8.38602         0.999117         -8.3697         0.999117         -8.3697        0.0147629         127.088
0.2968                 0.0106217        -8.03092         0.999101        -8.52194         0.999101        -8.52194        0.0148118         126.617
0.3021                 0.0106029        -7.67406         0.999085        -8.67417         0.999085        -8.67417        0.0148608         126.147
0.3074                 0.0105847        -7.31546         0.999069        -8.82641         0.999069        -8.82641        0.0149099         125.677
0.3127                 0.0105669        -6.95513         0.999053        -8.97864         0.999053        -8.97864        0.0149592         125.209
0.318                  0.0105497        -6.59311         0.999037        -9.13088         0.999037        -9.13088        0.0150087         124.742
0.3233                 0.0105329        -6.22942          0.99902        -9.28312          0.99902        -9.28312        0.0150583         124.276
0.3286                 0.0105167        -5.86408         0.999004        -9.43535         0.999004        -9.43535         0.015108         123.811
0.3339                 0.0105009        -5.49712         0.998988        -9.58759         0.998988        -9.58759        0.0151579         123.348
0.3392                 0.0104857        -5.12857         0.998971        -9.73983         0.998971        -9.73983        0.0152079         122.885
0.3445                 0.0104709        -4.75845         0.998955        -9.89206         0.998955        -9.89206         0.015258         122.423
0.3498                 0.0104567         -4.3868         0.998938        -10.0443         0.998938        -10.0443        0.0153084         121.962
0.3551                  0.010443        -4.01365         0.998922        -10.1965         0.998922        -10.1965        0.0153588         121.502
0.3604                 0.0104299        -3.63903         0.998905        -10.3488         0.998905        -10.3488        0.0154094         121.044
0.3657                 0.0104172        -3.26296         0.998889         -10.501         0.998889         -10.501        0.0154601         120.586
0.371                  0.0104051        -2.88549         0.998872        -10.6533         0.998872        -10.6533         0.015511         120.129
0.3763                 0.0103936        -2.50664         0.998856        -10.8055         0.998856        -10.8055         0.015562         119.673
0.3816                 0.0103826        -2.12646         0.998839        -10.9577         0.998839        -10.9577        0.0156131         119.218
0.3869                 0.0103721        -1.74497         0.998822          -11.11         0.998822          -11.11        0.0156644         118.765
0.3922                 0.0103622        -1.36222         0.998806        -11.2622         0.998806        -11.2622        0.0157158         118.312
0.3975                 0.0103528       -0.978233         0.998789        -11.4144         0.998789        -11.4144        0.0157674          117.86
0.4028                 0.0103441       -0.593062         0.998772        -11.5667         0.998772        -11.5667        0.0158191         117.409
0.4081                 0.0103358       -0.206738         0.998755        -11.7189         0.998755        -11.7189         0.015871         116.958
0.4134                 0.0103282          0.1807         0.998738        -11.8712         0.998738        -11.8712        0.0159229         116.509
0.4187                 0.0103211        0.569211         0.998722        -12.0234         0.998722        -12.0234        0.0159751         116.061
0.424                  0.0103145        0.958752         0.998705        -12.1757         0.998705        -12.1757        0.0160273         115.614
0.4293                 0.0103086         1.34927         0.998688        -12.3279         0.998688        -12.3279        0.0160797         115.167
0.4346                 0.0103032         1.74074         0.998671        -12.4801         0.998671        -12.4801        0.0161323         114.722
0.4399                 0.0102984         2.13312         0.998654        -12.6324         0.998654        -12.6324         0.016185         114.277
0.4452                 0.0102942         2.52635         0.998637        -12.7846         0.998637        -12.7846        0.0162378         113.833
0.4505                 0.0102906         2.92039          0.99862        -12.9369          0.99862        -12.9369        0.0162907          113.39
0.4558                 0.0102876         3.31519         0.998602        -13.0891         0.998602        -13.0891        0.0163438         112.948
0.4611                 0.0102852         3.71071         0.998585        -13.2413         0.998585        -13.2413        0.0163971         112.507
0.4664                 0.0102834         4.10692         0.998568        -13.3936         0.998568        -13.3936        0.0164505         112.067
0.4717                 0.0102821         4.50375         0.998551        -13.5458         0.998551        -13.5458         0.016504         111.627
0.477                  0.0102815         4.90115         0.998534        -13.6981         0.998534        -13.6981        0.0165576         111.189
0.4823                 0.0102815         5.29907         0.998516        -13.8503         0.998516        -13.8503        0.0166114         110.751
0.4876                 0.0102821         5.69748         0.998499        -14.0026         0.998499        -14.0026        0.0166654         110.314
0.4929                 0.0102833         6.09632         0.998482        -14.1548         0.998482        -14.1548        0.0167194         109.878
0.4982                 0.0102852         6.49555         0.998464        -14.3071         0.998464        -14.3071        0.0167737         109.442
0.5035                 0.0102876         6.89511         0.998447        -14.4593         0.998447        -14.4593         0.016828         109.008
0.5088                 0.0102907         7.29493         0.998429        -14.6115         0.998429        -14.6115        0.0168825         108.574
0.5141                 0.0102944         7.69498         0.998412        -14.7638         0.998412        -14.7638        0.0169372         108.141
0.5194                 0.0102987         8.09522         0.998394         -14.916         0.998394         -14.916        0.0169919         107.709
0.5247                 0.0103036         8.49559         0.998377        -15.0683         0.998377        -15.0683        0.0170468         107.278
0.53                   0.0103092         8.89604         0.998359        -15.2205         0.998359        -15.2205        0.0171019         106.847
0.5353                 0.0103154         9.29648         0.998341        -15.3728         0.998341        -15.3728        0.0171571         106.417
0.5406                 0.0103222         9.69691         0.998324         -15.525         0.998324         -15.525        0.0172125         105.988
0.5459                 0.0103297         10.0973         0.998306        -15.6773         0.998306        -15.6773        0.0172679          105.56
0.5512                 0.0103378         10.4975         0.998288        -15.8295         0.998288        -15.8295        0.0173236         105.132
0.5565                 0.0103465         10.8975          0.99827        -15.9818          0.99827        -15.9818        0.0173793         104.706
0.5618                 0.0103559         11.2973         0.998253         -16.134         0.998253         -16.134        0.0174353          104.28
0.5671                 0.0103659         11.6968         0.998235        -16.2863         0.998235        -16.2863        0.0174913         103.854
0.5724                 0.0103766         12.0959         0.998217        -16.4385         0.998217        -16.4385        0.0175475          103.43
0.5777                 0.0103879         12.4947         0.998199        -16.5908         0.998199        -16.5908        0.0176039         103.006
0.583                  0.0103998          12.893         0.998181         -16.743         0.998181         -16.743        0.0176603         102.583
0.5883                 0.0104124         13.2908         0.998163        -16.8952         0.998163        -16.8952         0.017717         102.161
0.5936                 0.0104256         13.6881         0.998145        -17.0475         0.998145        -17.0475        0.0177738         101.739
0.5989                 0.0104395         14.0848         0.998127        -17.1997         0.998127        -17.1997        0.0178307         101.318
0.6042                  0.010454         14.4808         0.998109         -17.352         0.998109         -17.352        0.0178877         100.898
0.6095                 0.0104692         14.8761         0.998091        -17.5042         0.998091        -17.5042         0.017945         100.479
0.6148                  0.010485         15.2706         0.998072        -17.6565         0.998072        -17.6565        0.0180023          100.06
0.6201                 0.0105014         15.6644         0.998054        -17.8087         0.998054        -17.8087        0.0180598          99.642
0.6254                 0.0105185         16.0573         0.998036         -17.961         0.998036         -17.961        0.0181175         99.2247
0.6307                 0.0105363         16.4493         0.998018        -18.1132         0.998018        -18.1132        0.0181753          98.808
0.636                  0.0105547         16.8403         0.997999        -18.2655         0.997999        -18.2655        0.0182332          98.392
0.6413                 0.0105737         17.2304         0.997981        -18.4178         0.997981        -18.4178        0.0182913         97.9767
0.6466                 0.0105934         17.6194         0.997963          -18.57         0.997963          -18.57        0.0183496         97.5621
0.6519                 0.0106137         18.0073         0.997944        -18.7223         0.997944        -18.7223        0.0184079         97.1482
0.6572                 0.0106347          18.394         0.997926        -18.8745         0.997926        -18.8745        0.0184665         96.7349
0.6625                 0.0106563         18.7796         0.997907        -19.0268         0.997907        -19.0268        0.0185252         96.3223
0.6678                 0.0106786          19.164         0.997889         -19.179         0.997889         -19.179         0.018584         95.9103
0.6731                 0.0107015         19.5471          0.99787        -19.3313          0.99787        -19.3313         0.018643          95.499
0.6784                 0.0107251         19.9288         0.997852        -19.4835         0.997852        -19.4835        0.0187021         95.0884
0.6837                 0.0107492         20.3093         0.997833        -19.6358         0.997833        -19.6358        0.0187614         94.6784
0.689                  0.0107741         20.6883         0.997814         -19.788         0.997814         -19.788        0.0188209         94.2691
0.6943                 0.0107995         21.0658         0.997795        -19.9403         0.997795        -19.9403        0.0188805         93.8604
0.6996                 0.0108257         21.4419         0.997777        -20.0925         0.997777        -20.0925        0.0189402         93.4524
0.7049                 0.0108524         21.8164         0.997758        -20.2448         0.997758        -20.2448        0.0190001         93.0449
0.7102                 0.0108798         22.1894         0.997739         -20.397         0.997739         -20.397        0.0190601         92.6382
0.7155                 0.0109078         22.5608          0.99772        -20.5493          0.99772        -20.5493        0.0191203          92.232
0.7208                 0.0109365         22.9306         0.997701        -20.7016         0.997701        -20.7016        0.0191807         91.8265
0.7261                 0.0109657         23.2986         0.997682        -20.8538         0.997682        -20.8538        0.0192412         91.4216
0.7314                 0.0109957          23.665         0.997664        -21.0061         0.997664        -21.0061        0.0193019         91.0174
0.7367                 0.0110262         24.0296         0.997645        -21.1583         0.997645        -21.1583        0.0193627         90.6137
0.742                  0.0110574         24.3925         0.997625        -21.3106         0.997625        -21.3106        0.0194237         90.2106
0.7473                 0.0110892         24.7535         0.997606        -21.4628         0.997606        -21.4628        0.0194848         89.8082
0.7526                 0.0111216         25.1127         0.997587        -21.6151         0.997587        -21.6151        0.0195461         89.4064
0.7579                 0.0111546           25.47         0.997568        -21.7674         0.997568        -21.7674        0.0196076         89.0052
0.7632                 0.0111883         25.8254         0.997549        -21.9196         0.997549        -21.9196        0.0196692         88.6046
0.7685                 0.0112225         26.1789          0.99753        -22.0719          0.99753        -22.0719        0.0197309         88.2046
0.7738                 0.0112574         26.5304         0.997511        -22.2241         0.997511        -22.2241        0.0197928         87.8052
0.7791                 0.0112929         26.8799         0.997491        -22.3764         0.997491        -22.3764        0.0198549         87.4064
0.7844                  0.011329         27.2274         0.997472        -22.5286         0.997472        -22.5286        0.0199172         87.0082
0.7897                 0.0113657         27.5729         0.997453        -22.6809         0.997453        -22.6809        0.0199796         86.6106
0.795                  0.0114031         27.9164         0.997433        -22.8332         0.997433        -22.8332        0.0200421         86.2135
0.8003                  0.011441         28.2577         0.997414        -22.9854         0.997414        -22.9854        0.0201048         85.8171
0.8056                 0.0114795         28.5969         0.997394        -23.1377         0.997394        -23.1377        0.0201677         85.4212
0.8109                 0.0115186         28.9339         0.997375        -23.2899         0.997375        -23.2899        0.0202308         85.0259
0.8162                 0.0115584         29.2689         0.997355        -23.4422         0.997355        -23.4422         0.020294         84.6312
0.8215                 0.0115987         29.6017         0.997336        -23.5945         0.997336        -23.5945        0.0203573          84.237
0.8268                 0.0116396         29.9322         0.997316        -23.7467         0.997316        -23.7467        0.0204209         83.8435
0.8321                 0.0116811         30.2605         0.997296         -23.899         0.997296         -23.899        0.0204846         83.4505
0.8374                 0.0117232         30.5867         0.997277        -24.0512         0.997277        -24.0512        0.0205484         83.0581
0.8427                 0.0117658         30.9106         0.997257        -24.2035         0.997257        -24.2035        0.0206125         82.6662
0.848                   0.011809         31.2322         0.997237        -24.3558         0.997237        -24.3558        0.0206766         82.2749
0.8533                 0.0118529         31.5516         0.997217         -24.508         0.997217         -24.508         0.020741         81.8842
0.8586                 0.0118973         31.8686         0.997198        -24.6603         0.997198        -24.6603        0.0208055          81.494
0.8639                 0.0119422         32.1834         0.997178        -24.8126         0.997178        -24.8126        0.0208702         81.1044
0.8692                 0.0119877         32.4959         0.997158        -24.9648         0.997158        -24.9648        0.0209351         80.7153
0.8745                 0.0120338          32.806         0.997138        -25.1171         0.997138        -25.1171        0.0210001         80.3268
0.8798                 0.0120805         33.1138         0.997118        -25.2693         0.997118        -25.2693        0.0210653         79.9388
0.8851                 0.0121277         33.4193         0.997098        -25.4216         0.997098        -25.4216        0.0211306         79.5514
0.8904                 0.0121755         33.7224         0.997078        -25.5739         0.997078        -25.5739        0.0211962         79.1646
0.8957                 0.0122238         34.0232         0.997058        -25.7261         0.997058        -25.7261        0.0212618         78.7782
0.901                  0.0122727         34.3216         0.997038        -25.8784         0.997038        -25.8784        0.0213277         78.3924
0.9063                 0.0123221         34.6176         0.997017        -26.0307         0.997017        -26.0307        0.0213938         78.0072
0.9116                 0.0123721         34.9113         0.996997        -26.1829         0.996997        -26.1829          0.02146         77.6225
0.9169                 0.0124226         35.2026         0.996977        -26.3352         0.996977        -26.3352        0.0215263         77.2384
0.9222                 0.0124737         35.4915         0.996957        -26.4875         0.996957        -26.4875        0.0215929         76.8548
0.9275                 0.0125252          35.778         0.996936        -26.6397         0.996936        -26.6397        0.0216596         76.4717
0.9328                 0.0125774         36.0621         0.996916         -26.792         0.996916         -26.792        0.0217265         76.0891
0.9381                   0.01263         36.3438         0.996896        -26.9443         0.996896        -26.9443        0.0217936         75.7071
0.9434                 0.0126832         36.6231         0.996875        -27.0965         0.996875        -27.0965        0.0218608         75.3256
0.9487                 0.0127369            36.9         0.996855        -27.2488         0.996855        -27.2488        0.0219282         74.9446
0.954                  0.0127911         37.1746         0.996834        -27.4011         0.996834        -27.4011        0.0219958         74.5642
0.9593                 0.0128459         37.4467         0.996814        -27.5533         0.996814        -27.5533        0.0220636         74.1843
0.9646                 0.0129011         37.7164         0.996793        -27.7056         0.996793        -27.7056        0.0221315         73.8049
0.9699                 0.0129569         37.9838         0.996772        -27.8579         0.996772        -27.8579        0.0221996         73.4261
0.9752                 0.0130131         38.2487         0.996752        -28.0101         0.996752        -28.0101        0.0222679         73.0477
0.9805                 0.0130699         38.5113         0.996731        -28.1624         0.996731        -28.1624        0.0223364         72.6699
0.9858                 0.0131272         38.7715          0.99671        -28.3147          0.99671        -28.3147         0.022405         72.2926
0.9911                  0.013185         39.0293          0.99669         -28.467          0.99669         -28.467        0.0224738         71.9158
0.9964                 0.0132432         39.2847         0.996669        -28.6192         0.996669        -28.6192        0.0225428         71.5395