! TOUCHSTONE file generated by CST MICROWAVE STUDIO
! Date and time: Tue Jan  7 09:43:46 2020
! Project name: OSHPark_FR408_Transition2.cst
! Parameters = {GND_Plane_XMax=11.75; Cap_Disk_XOffset=0; Cap_Disk2_YCenter=-1.03; Cap_Disk_YCenter=1.03; Cap_Disk_XCenter=7.39; Cap_Disk_Radius=0.5; BottomSupport_Left_YMax=4.76; BottomSupport_Left_YMin=3.74; BottomSupport_Right_YMax=-3.74; BottomSupport_Right_YMin=-4.76; BottomSupport_XMax=11.64; BottomSupport_XMin=6.89; BottomSupport_ZMax=-1.64084; BottomSupport_ZMin=-3.58; Cu1_Thickness=0.03556; Cu2_Thickness=0.01778; Fr408Core_Thickness=1.1938; GND_Plane_Offset=2.9; PCBThickness=1.6256; Prepreg1_Zmin=-0.20574; Prepreg_Thickness=0.17018; RFTraceYMax=0.17145; RFTrace_XMax=15; RFTrace_XMin=11.46; RFTrace_YMin=-0.17145; SMA_CenterCond_Inner_XMax=11.64; SMA_CenterCond_Radius=0.6; SMA_Dielectric_InnerRadius=0.6; SMA_Dielectric_OuterRadius=2; SMA_Dielectric_XMax=5.62; SMA_Dielectric_XMin=0; SMA_Dielectric_YCenter=0; SMA_Dielectric_ZCenter=0; SMA_Footprint_Center_XMax=12.49; SMA_Footprint_Center_XMin=7.74; SMA_Footprint_Center_YMax=0.75; SMA_Footprint_Center_YMin=-0.75; SMA_OuterCond_InnerRadius=2; SMA_OuterCond_OuterRadius=3; SMA_OuterCond_XMax=6.89; SMA_XMax=6.67; SMA_XMin=0; SMA_YCenter=0; SMA_ZCenter=0; TopSupport_ZMax=1.02; TopSupport_ZMin=0; Via1_XCenter=7.5; Via1_YCenter=-4.25; Via2_XCenter=8.75; Via2_YCenter=-4.25; Via3_XCenter=10; Via3_YCenter=-4.25; Via4_XCenter=11.25; Via4_YCenter=-4.25; Via5_XCenter=7.5; Via5_YCenter=4.25; Via6_XCenter=8.75; Via6_YCenter=4.25; Via7_XCenter=10; Via7_YCenter=4.25; Via8_XCenter=11.25; Via8_YCenter=4.25; ViaInnerRadius=0; ViaOuterRadius=0.381}
! Header version: 2015
! Port assignment regex: !\s*Touchstone port\s*([0-9]+)\s*=\s*CST MWS port\s*([0-9]+)\s*\(\"(.*)\"\)(\s*mode\s*([0-9]+))?.*
! Touchstone port assignment:
! Touchstone port 1 = CST MWS port 1 ("")
! Touchstone port 2 = CST MWS port 2 ("")
# GHz S MA R 50
0                     0.00946227               0         0.999969               0         0.999969               0       0.00946178             180
0.0053                 0.0107758        -28.5971         0.999933       -0.160361         0.999933       -0.160361        0.0108128          150.64
0.0106                 0.0108492        -29.7409         0.999938        -0.30797         0.999938        -0.30797        0.0107341         151.476
0.0159                 0.0109216         -30.487         0.999919       -0.459345         0.999919       -0.459345        0.0106751          151.97
0.0212                 0.0109868        -31.1624         0.999899       -0.611567         0.999899       -0.611567        0.0106223         152.394
0.0265                 0.0110481        -31.8125          0.99988       -0.764114          0.99988       -0.764114        0.0105717         152.793
0.0318                 0.0111099        -32.4412         0.999861       -0.916817         0.999861       -0.916817        0.0105249         153.187
0.0371                 0.0111702        -33.0629         0.999842        -1.06961         0.999842        -1.06961        0.0104782         153.574
0.0424                 0.0112262        -33.6903         0.999823        -1.22246         0.999823        -1.22246        0.0104283         153.951
0.0477                 0.0112842        -34.3046         0.999804        -1.37535         0.999804        -1.37535        0.0103814         154.334
0.053                  0.0113444        -34.9068         0.999785        -1.52826         0.999785        -1.52826        0.0103375         154.723
0.0583                 0.0114072        -35.4952         0.999766        -1.68119         0.999766        -1.68119        0.0102971         155.121
0.0636                 0.0114699        -36.0798         0.999747        -1.83413         0.999747        -1.83413        0.0102572         155.521
0.0689                 0.0115327        -36.6606         0.999728        -1.98708         0.999728        -1.98708        0.0102178         155.923
0.0742                 0.0115961        -37.2361         0.999709        -2.14004         0.999709        -2.14004        0.0101794         156.329
0.0795                 0.0116602        -37.8058         0.999691        -2.29301         0.999691        -2.29301        0.0101423         156.738
0.0848                 0.0117252        -38.3691         0.999672        -2.44598         0.999672        -2.44598        0.0101067         157.152
0.0901                 0.0117908        -38.9271         0.999653        -2.59896         0.999653        -2.59896        0.0100722          157.57
0.0954                 0.0118571          -39.48         0.999634        -2.75193         0.999634        -2.75193        0.0100388         157.992
0.1007                 0.0119241        -40.0275         0.999615        -2.90492         0.999615        -2.90492        0.0100067         158.417
0.106                  0.0119917        -40.5698         0.999596         -3.0579         0.999596         -3.0579       0.00997576         158.846
0.1113                 0.0120601        -41.1067         0.999577        -3.21088         0.999577        -3.21088       0.00994615         159.279
0.1166                 0.0121291        -41.6386         0.999558        -3.36387         0.999558        -3.36387       0.00991776         159.716
0.1219                 0.0121987        -42.1654         0.999539        -3.51686         0.999539        -3.51686       0.00989058         160.155
0.1272                  0.012269        -42.6873          0.99952        -3.66985          0.99952        -3.66985       0.00986467         160.598
0.1325                 0.0123399        -43.2041         0.999501        -3.82284         0.999501        -3.82284       0.00984003         161.044
0.1378                 0.0124114        -43.7159         0.999482        -3.97583         0.999482        -3.97583       0.00981669         161.494
0.1431                 0.0124836        -44.2229         0.999463        -4.12882         0.999463        -4.12882       0.00979462         161.946
0.1484                 0.0125563        -44.7251         0.999444        -4.28181         0.999444        -4.28181       0.00977382         162.401
0.1537                 0.0126296        -45.2226         0.999425         -4.4348         0.999425         -4.4348       0.00975432         162.858
0.159                  0.0127035        -45.7153         0.999405        -4.58779         0.999405        -4.58779       0.00973612         163.318
0.1643                  0.012778        -46.2032         0.999386        -4.74078         0.999386        -4.74078       0.00971926          163.78
0.1696                  0.012853        -46.6866         0.999367        -4.89377         0.999367        -4.89377        0.0097037         164.245
0.1749                 0.0129285        -47.1654         0.999348        -5.04676         0.999348        -5.04676       0.00968945         164.711
0.1802                 0.0130046        -47.6397         0.999329        -5.19976         0.999329        -5.19976       0.00967652         165.179
0.1855                 0.0130813        -48.1095          0.99931        -5.35275          0.99931        -5.35275       0.00966493         165.649
0.1908                 0.0131584        -48.5748          0.99929        -5.50574          0.99929        -5.50574       0.00965469          166.12
0.1961                  0.013236        -49.0357         0.999271        -5.65873         0.999271        -5.65873       0.00964578         166.592
0.2014                 0.0133142        -49.4924         0.999252        -5.81172         0.999252        -5.81172        0.0096382         167.066
0.2067                 0.0133928        -49.9447         0.999232        -5.96471         0.999232        -5.96471       0.00963196          167.54
0.212                  0.0134719        -50.3929         0.999213         -6.1177         0.999213         -6.1177       0.00962707         168.015
0.2173                 0.0135515        -50.8368         0.999194        -6.27069         0.999194        -6.27069       0.00962355         168.491
0.2226                 0.0136315        -51.2765         0.999174        -6.42368         0.999174        -6.42368       0.00962137         168.966
0.2279                  0.013712        -51.7122         0.999155        -6.57667         0.999155        -6.57667       0.00962053         169.442
0.2332                 0.0137929        -52.1439         0.999136        -6.72966         0.999136        -6.72966       0.00962103         169.918
0.2385                 0.0138742        -52.5716         0.999116        -6.88264         0.999116        -6.88264       0.00962289         170.394
0.2438                  0.013956        -52.9953         0.999097        -7.03563         0.999097        -7.03563        0.0096261         170.869
0.2491                 0.0140382        -53.4151         0.999077        -7.18862         0.999077        -7.18862       0.00963066         171.343
0.2544                 0.0141208        -53.8311         0.999058        -7.34161         0.999058        -7.34161       0.00963654         171.816
0.2597                 0.0142038        -54.2433         0.999038        -7.49459         0.999038        -7.49459       0.00964377         172.289
0.265                  0.0142872        -54.6518         0.999019        -7.64758         0.999019        -7.64758       0.00965233          172.76
0.2703                 0.0143709        -55.0565         0.998999        -7.80056         0.998999        -7.80056       0.00966224          173.23
0.2756                 0.0144551        -55.4576          0.99898        -7.95355          0.99898        -7.95355       0.00967346         173.698
0.2809                 0.0145396        -55.8551          0.99896        -8.10653          0.99896        -8.10653         0.009686         174.165
0.2862                 0.0146245         -56.249          0.99894        -8.25952          0.99894        -8.25952       0.00969985         174.629
0.2915                 0.0147097        -56.6394         0.998921         -8.4125         0.998921         -8.4125       0.00971501         175.092
0.2968                 0.0147952        -57.0264         0.998901        -8.56548         0.998901        -8.56548       0.00973149         175.552
0.3021                 0.0148811        -57.4099         0.998881        -8.71847         0.998881        -8.71847       0.00974926          176.01
0.3074                 0.0149674          -57.79         0.998862        -8.87145         0.998862        -8.87145        0.0097683         176.465
0.3127                 0.0150539        -58.1668         0.998842        -9.02443         0.998842        -9.02443       0.00978862         176.917
0.318                  0.0151408        -58.5404         0.998822        -9.17741         0.998822        -9.17741       0.00981021         177.366
0.3233                  0.015228        -58.9106         0.998802        -9.33039         0.998802        -9.33039       0.00983308         177.812
0.3286                 0.0153154        -59.2777         0.998783        -9.48337         0.998783        -9.48337       0.00985719         178.255
0.3339                 0.0154032        -59.6416         0.998763        -9.63635         0.998763        -9.63635       0.00988253         178.695
0.3392                 0.0154913        -60.0025         0.998743        -9.78933         0.998743        -9.78933        0.0099091         179.131
0.3445                 0.0155796        -60.3602         0.998723        -9.94231         0.998723        -9.94231       0.00993688         179.563
0.3498                 0.0156683        -60.7149         0.998703        -10.0953         0.998703        -10.0953       0.00996589         179.992
0.3551                 0.0157572        -61.0666         0.998683        -10.2483         0.998683        -10.2483       0.00999609        -179.583
0.3604                 0.0158463        -61.4154         0.998663        -10.4012         0.998663        -10.4012        0.0100275        -179.163
0.3657                 0.0159358        -61.7612         0.998643        -10.5542         0.998643        -10.5542          0.01006        -178.746
0.371                  0.0160254        -62.1042         0.998624        -10.7072         0.998624        -10.7072        0.0100937        -178.334
0.3763                 0.0161154        -62.4444         0.998604        -10.8602         0.998604        -10.8602        0.0101286        -177.926
0.3816                 0.0162055        -62.7817         0.998584        -11.0131         0.998584        -11.0131        0.0101646        -177.522
0.3869                 0.0162959        -63.1163         0.998564        -11.1661         0.998564        -11.1661        0.0102017        -177.123
0.3922                 0.0163866        -63.4483         0.998543        -11.3191         0.998543        -11.3191        0.0102399        -176.729
0.3975                 0.0164774        -63.7775         0.998523        -11.4721         0.998523        -11.4721        0.0102792        -176.339
0.4028                 0.0165685         -64.104         0.998503         -11.625         0.998503         -11.625        0.0103196        -175.954
0.4081                 0.0166598         -64.428         0.998483         -11.778         0.998483         -11.778        0.0103611        -175.574
0.4134                 0.0167514        -64.7494         0.998463         -11.931         0.998463         -11.931        0.0104036        -175.199
0.4187                 0.0168431        -65.0683         0.998443        -12.0839         0.998443        -12.0839        0.0104471        -174.828
0.424                   0.016935        -65.3847         0.998423        -12.2369         0.998423        -12.2369        0.0104917        -174.463
0.4293                 0.0170271        -65.6986         0.998403        -12.3899         0.998403        -12.3899        0.0105373        -174.103
0.4346                 0.0171195          -66.01         0.998382        -12.5429         0.998382        -12.5429        0.0105839        -173.748
0.4399                  0.017212        -66.3191         0.998362        -12.6958         0.998362        -12.6958        0.0106314        -173.398
0.4452                 0.0173046        -66.6258         0.998342        -12.8488         0.998342        -12.8488        0.0106799        -173.053
0.4505                 0.0173975        -66.9302         0.998322        -13.0018         0.998322        -13.0018        0.0107294        -172.713
0.4558                 0.0174905        -67.2323         0.998301        -13.1547         0.998301        -13.1547        0.0107798        -172.379
0.4611                 0.0175838        -67.5321         0.998281        -13.3077         0.998281        -13.3077        0.0108312         -172.05
0.4664                 0.0176771        -67.8297         0.998261        -13.4606         0.998261        -13.4606        0.0108834        -171.726
0.4717                 0.0177707         -68.125          0.99824        -13.6136          0.99824        -13.6136        0.0109366        -171.407
0.477                  0.0178644        -68.4182          0.99822        -13.7666          0.99822        -13.7666        0.0109906        -171.094
0.4823                 0.0179582        -68.7093         0.998199        -13.9195         0.998199        -13.9195        0.0110455        -170.786
0.4876                 0.0180522        -68.9982         0.998179        -14.0725         0.998179        -14.0725        0.0111012        -170.483
0.4929                 0.0181463         -69.285         0.998159        -14.2255         0.998159        -14.2255        0.0111578        -170.186
0.4982                 0.0182406        -69.5698         0.998138        -14.3784         0.998138        -14.3784        0.0112152        -169.893
0.5035                 0.0183351        -69.8526         0.998118        -14.5314         0.998118        -14.5314        0.0112733        -169.607
0.5088                 0.0184296        -70.1333         0.998097        -14.6843         0.998097        -14.6843        0.0113324        -169.325
0.5141                 0.0185243         -70.412         0.998077        -14.8373         0.998077        -14.8373        0.0113921        -169.049
0.5194                 0.0186191        -70.6888         0.998056        -14.9903         0.998056        -14.9903        0.0114527        -168.778
0.5247                 0.0187141        -70.9637         0.998035        -15.1432         0.998035        -15.1432         0.011514        -168.512
0.53                   0.0188091        -71.2367         0.998015        -15.2962         0.998015        -15.2962         0.011576        -168.251
0.5353                 0.0189043        -71.5078         0.997994        -15.4491         0.997994        -15.4491        0.0116388        -167.996
0.5406                 0.0189996        -71.7771         0.997974        -15.6021         0.997974        -15.6021        0.0117022        -167.745
0.5459                  0.019095        -72.0445         0.997953         -15.755         0.997953         -15.755        0.0117664          -167.5
0.5512                 0.0191905        -72.3102         0.997932         -15.908         0.997932         -15.908        0.0118313         -167.26
0.5565                 0.0192861        -72.5741         0.997912         -16.061         0.997912         -16.061        0.0118968        -167.025
0.5618                 0.0193819        -72.8362         0.997891        -16.2139         0.997891        -16.2139         0.011963        -166.795
0.5671                 0.0194777        -73.0965          0.99787        -16.3669          0.99787        -16.3669        0.0120298         -166.57
0.5724                 0.0195736        -73.3552         0.997849        -16.5198         0.997849        -16.5198        0.0120973         -166.35
0.5777                 0.0196696        -73.6123         0.997829        -16.6728         0.997829        -16.6728        0.0121654        -166.135
0.583                  0.0197657        -73.8676         0.997808        -16.8257         0.997808        -16.8257        0.0122341        -165.925
0.5883                 0.0198618        -74.1213         0.997787        -16.9787         0.997787        -16.9787        0.0123034         -165.72
0.5936                 0.0199581        -74.3734         0.997766        -17.1316         0.997766        -17.1316        0.0123733         -165.52
0.5989                 0.0200544        -74.6239         0.997745        -17.2846         0.997745        -17.2846        0.0124438        -165.324
0.6042                 0.0201509        -74.8728         0.997724        -17.4375         0.997724        -17.4375        0.0125149        -165.133
0.6095                 0.0202474        -75.1202         0.997703        -17.5905         0.997703        -17.5905        0.0125864        -164.947
0.6148                 0.0203439         -75.366         0.997683        -17.7434         0.997683        -17.7434        0.0126586        -164.765
0.6201                 0.0204406        -75.6103         0.997662        -17.8963         0.997662        -17.8963        0.0127313        -164.588
0.6254                 0.0205373        -75.8531         0.997641        -18.0493         0.997641        -18.0493        0.0128045        -164.415
0.6307                  0.020634        -76.0945          0.99762        -18.2022          0.99762        -18.2022        0.0128781        -164.247
0.636                  0.0207308        -76.3344         0.997599        -18.3552         0.997599        -18.3552        0.0129523        -164.084
0.6413                 0.0208277        -76.5728         0.997578        -18.5081         0.997578        -18.5081         0.013027        -163.925
0.6466                 0.0209247        -76.8098         0.997557        -18.6611         0.997557        -18.6611        0.0131022         -163.77
0.6519                 0.0210217        -77.0454         0.997535         -18.814         0.997535         -18.814        0.0131778         -163.62
0.6572                 0.0211187        -77.2797         0.997514        -18.9669         0.997514        -18.9669        0.0132539        -163.473
0.6625                 0.0212158        -77.5126         0.997493        -19.1199         0.997493        -19.1199        0.0133305        -163.332
0.6678                  0.021313        -77.7441         0.997472        -19.2728         0.997472        -19.2728        0.0134075        -163.194
0.6731                 0.0214102        -77.9743         0.997451        -19.4258         0.997451        -19.4258        0.0134849         -163.06
0.6784                 0.0215074        -78.2031          0.99743        -19.5787          0.99743        -19.5787        0.0135627        -162.931
0.6837                 0.0216047        -78.4307         0.997409        -19.7316         0.997409        -19.7316         0.013641        -162.805
0.689                   0.021702        -78.6571         0.997387        -19.8846         0.997387        -19.8846        0.0137196        -162.683
0.6943                 0.0217993        -78.8821         0.997366        -20.0375         0.997366        -20.0375        0.0137987        -162.566
0.6996                 0.0218967        -79.1058         0.997345        -20.1905         0.997345        -20.1905        0.0138781        -162.452
0.7049                 0.0219941        -79.3284         0.997324        -20.3434         0.997324        -20.3434        0.0139579        -162.342
0.7102                 0.0220916        -79.5497         0.997302        -20.4963         0.997302        -20.4963        0.0140381        -162.236
0.7155                  0.022189        -79.7698         0.997281        -20.6493         0.997281        -20.6493        0.0141186        -162.134
0.7208                 0.0222865        -79.9887          0.99726        -20.8022          0.99726        -20.8022        0.0141995        -162.035
0.7261                 0.0223841        -80.2065         0.997238        -20.9551         0.997238        -20.9551        0.0142808         -161.94
0.7314                 0.0224816        -80.4231         0.997217        -21.1081         0.997217        -21.1081        0.0143623        -161.849
0.7367                 0.0225792        -80.6385         0.997195         -21.261         0.997195         -21.261        0.0144442        -161.761
0.742                  0.0226768        -80.8528         0.997174        -21.4139         0.997174        -21.4139        0.0145265        -161.677
0.7473                 0.0227744         -81.066         0.997153        -21.5668         0.997153        -21.5668         0.014609        -161.596
0.7526                  0.022872         -81.278         0.997131        -21.7198         0.997131        -21.7198        0.0146919        -161.518
0.7579                 0.0229696         -81.489          0.99711        -21.8727          0.99711        -21.8727         0.014775        -161.444
0.7632                 0.0230672        -81.6989         0.997088        -22.0256         0.997088        -22.0256        0.0148585        -161.374
0.7685                 0.0231649        -81.9078         0.997067        -22.1786         0.997067        -22.1786        0.0149422        -161.306
0.7738                 0.0232625        -82.1155         0.997045        -22.3315         0.997045        -22.3315        0.0150262        -161.242
0.7791                 0.0233602        -82.3223         0.997023        -22.4844         0.997023        -22.4844        0.0151105        -161.181
0.7844                 0.0234578         -82.528         0.997002        -22.6373         0.997002        -22.6373        0.0151951        -161.123
0.7897                 0.0235555        -82.7327          0.99698        -22.7903          0.99698        -22.7903        0.0152799        -161.068
0.795                  0.0236531        -82.9363         0.996959        -22.9432         0.996959        -22.9432        0.0153649        -161.017
0.8003                 0.0237508         -83.139         0.996937        -23.0961         0.996937        -23.0961        0.0154503        -160.968
0.8056                 0.0238485        -83.3407         0.996915         -23.249         0.996915         -23.249        0.0155358        -160.922
0.8109                 0.0239461        -83.5414         0.996894        -23.4019         0.996894        -23.4019        0.0156216         -160.88
0.8162                 0.0240438        -83.7412         0.996872        -23.5549         0.996872        -23.5549        0.0157077         -160.84
0.8215                 0.0241414          -83.94          0.99685        -23.7078          0.99685        -23.7078        0.0157939        -160.803
0.8268                  0.024239        -84.1378         0.996828        -23.8607         0.996828        -23.8607        0.0158804        -160.769
0.8321                 0.0243366        -84.3348         0.996807        -24.0136         0.996807        -24.0136        0.0159671        -160.738
0.8374                 0.0244342        -84.5308         0.996785        -24.1665         0.996785        -24.1665         0.016054        -160.709
0.8427                 0.0245318        -84.7259         0.996763        -24.3195         0.996763        -24.3195        0.0161411        -160.683
0.848                  0.0246294        -84.9201         0.996741        -24.4724         0.996741        -24.4724        0.0162284         -160.66
0.8533                 0.0247269        -85.1134         0.996719        -24.6253         0.996719        -24.6253        0.0163159         -160.64
0.8586                 0.0248245        -85.3059         0.996697        -24.7782         0.996697        -24.7782        0.0164036        -160.622
0.8639                  0.024922        -85.4974         0.996676        -24.9311         0.996676        -24.9311        0.0164914        -160.607
0.8692                 0.0250195        -85.6882         0.996654         -25.084         0.996654         -25.084        0.0165795        -160.594
0.8745                  0.025117         -85.878         0.996632         -25.237         0.996632         -25.237        0.0166677        -160.584
0.8798                 0.0252144         -86.067          0.99661        -25.3899          0.99661        -25.3899        0.0167561        -160.576
0.8851                 0.0253118        -86.2552         0.996588        -25.5428         0.996588        -25.5428        0.0168447        -160.571
0.8904                 0.0254092        -86.4426         0.996566        -25.6957         0.996566        -25.6957        0.0169334        -160.568
0.8957                 0.0255066        -86.6292         0.996544        -25.8486         0.996544        -25.8486        0.0170222        -160.567
0.901                  0.0256039        -86.8149         0.996522        -26.0015         0.996522        -26.0015        0.0171113        -160.569
0.9063                 0.0257012        -86.9998           0.9965        -26.1544           0.9965        -26.1544        0.0172004        -160.573
0.9116                 0.0257985         -87.184         0.996478        -26.3073         0.996478        -26.3073        0.0172897        -160.579
0.9169                 0.0258957        -87.3674         0.996456        -26.4602         0.996456        -26.4602        0.0173792        -160.588
0.9222                 0.0259929          -87.55         0.996433        -26.6131         0.996433        -26.6131        0.0174688        -160.599
0.9275                 0.0260901        -87.7319         0.996411         -26.766         0.996411         -26.766        0.0175585        -160.612
0.9328                 0.0261872        -87.9129         0.996389         -26.919         0.996389         -26.919        0.0176483        -160.627
0.9381                 0.0262843        -88.0933         0.996367        -27.0719         0.996367        -27.0719        0.0177383        -160.644
0.9434                 0.0263814        -88.2729         0.996345        -27.2248         0.996345        -27.2248        0.0178284        -160.663
0.9487                 0.0264784        -88.4518         0.996323        -27.3777         0.996323        -27.3777        0.0179186        -160.685
0.954                  0.0265753        -88.6299           0.9963        -27.5306           0.9963        -27.5306        0.0180089        -160.708
0.9593                 0.0266723        -88.8073         0.996278        -27.6835         0.996278        -27.6835        0.0180993        -160.734
0.9646                 0.0267691         -88.984         0.996256        -27.8364         0.996256        -27.8364        0.0181898        -160.761
0.9699                  0.026866          -89.16         0.996234        -27.9893         0.996234        -27.9893        0.0182804        -160.791
0.9752                 0.0269627        -89.3354         0.996211        -28.1422         0.996211        -28.1422        0.0183712        -160.822
0.9805                 0.0270595          -89.51         0.996189        -28.2951         0.996189        -28.2951         0.018462        -160.855
0.9858                 0.0271562        -89.6839         0.996167         -28.448         0.996167         -28.448        0.0185529        -160.891
0.9911                 0.0272528        -89.8572         0.996144        -28.6009         0.996144        -28.6009        0.0186439        -160.928
0.9964                 0.0273494        -90.0298         0.996122        -28.7538         0.996122        -28.7538         0.018735        -160.966