! TOUCHSTONE file generated by CST MICROWAVE STUDIO
! Date and time: Tue Jan  7 09:43:05 2020
! Project name: OSHPark_FR408_Transition2.cst
! Parameters = {GND_Plane_XMax=11.75; Cap_Disk_XOffset=0; Cap_Disk2_YCenter=-1.03; Cap_Disk_YCenter=1.03; Cap_Disk_XCenter=7.39; Cap_Disk_Radius=0.5; BottomSupport_Left_YMax=4.76; BottomSupport_Left_YMin=3.74; BottomSupport_Right_YMax=-3.74; BottomSupport_Right_YMin=-4.76; BottomSupport_XMax=11.64; BottomSupport_XMin=6.89; BottomSupport_ZMax=-1.64084; BottomSupport_ZMin=-3.58; Cu1_Thickness=0.03556; Cu2_Thickness=0.01778; Fr408Core_Thickness=1.1938; GND_Plane_Offset=2.8; PCBThickness=1.6256; Prepreg1_Zmin=-0.20574; Prepreg_Thickness=0.17018; RFTraceYMax=0.17145; RFTrace_XMax=15; RFTrace_XMin=11.46; RFTrace_YMin=-0.17145; SMA_CenterCond_Inner_XMax=11.64; SMA_CenterCond_Radius=0.6; SMA_Dielectric_InnerRadius=0.6; SMA_Dielectric_OuterRadius=2; SMA_Dielectric_XMax=5.62; SMA_Dielectric_XMin=0; SMA_Dielectric_YCenter=0; SMA_Dielectric_ZCenter=0; SMA_Footprint_Center_XMax=12.49; SMA_Footprint_Center_XMin=7.74; SMA_Footprint_Center_YMax=0.75; SMA_Footprint_Center_YMin=-0.75; SMA_OuterCond_InnerRadius=2; SMA_OuterCond_OuterRadius=3; SMA_OuterCond_XMax=6.89; SMA_XMax=6.67; SMA_XMin=0; SMA_YCenter=0; SMA_ZCenter=0; TopSupport_ZMax=1.02; TopSupport_ZMin=0; Via1_XCenter=7.5; Via1_YCenter=-4.25; Via2_XCenter=8.75; Via2_YCenter=-4.25; Via3_XCenter=10; Via3_YCenter=-4.25; Via4_XCenter=11.25; Via4_YCenter=-4.25; Via5_XCenter=7.5; Via5_YCenter=4.25; Via6_XCenter=8.75; Via6_YCenter=4.25; Via7_XCenter=10; Via7_YCenter=4.25; Via8_XCenter=11.25; Via8_YCenter=4.25; ViaInnerRadius=0; ViaOuterRadius=0.381}
! Header version: 2015
! Port assignment regex: !\s*Touchstone port\s*([0-9]+)\s*=\s*CST MWS port\s*([0-9]+)\s*\(\"(.*)\"\)(\s*mode\s*([0-9]+))?.*
! Touchstone port assignment:
! Touchstone port 1 = CST MWS port 1 ("")
! Touchstone port 2 = CST MWS port 2 ("")
# GHz S MA R 50
0                       0.280221               0         0.726802               0         0.726802               0         0.266128               0
0.0053                 0.0122401        -24.1877         0.999936       -0.159927         0.999936       -0.159927         0.012356         154.697
0.0106                 0.0122985        -24.9069          0.99992       -0.307737          0.99992       -0.307737        0.0123034         155.132
0.0159                 0.0123244        -25.3933         0.999905        -0.45897         0.999905        -0.45897        0.0122686         155.296
0.0212                  0.012346        -25.8129         0.999889       -0.611057         0.999889       -0.611057         0.012242           155.4
0.0265                 0.0123672        -26.2025         0.999873       -0.763486         0.999873       -0.763486        0.0122202         155.484
0.0318                 0.0123863        -26.5818         0.999858       -0.916087         0.999858       -0.916087        0.0121985         155.553
0.0371                 0.0124067        -26.9488         0.999842        -1.06878         0.999842        -1.06878        0.0121796          155.62
0.0424                 0.0124315         -27.298         0.999827        -1.22154         0.999827        -1.22154        0.0121663         155.693
0.0477                 0.0124546        -27.6471         0.999811        -1.37434         0.999811        -1.37434        0.0121519         155.761
0.053                  0.0124762         -27.997         0.999795        -1.52717         0.999795        -1.52717        0.0121363         155.824
0.0583                 0.0124958          -28.35         0.999779        -1.68002         0.999779        -1.68002        0.0121187         155.881
0.0636                 0.0125162        -28.6991         0.999764        -1.83288         0.999764        -1.83288        0.0121024          155.94
0.0689                 0.0125375        -29.0446         0.999748        -1.98576         0.999748        -1.98576        0.0120871         155.999
0.0742                 0.0125591        -29.3882         0.999732        -2.13864         0.999732        -2.13864        0.0120723         156.059
0.0795                 0.0125809        -29.7304         0.999716        -2.29153         0.999716        -2.29153        0.0120577         156.119
0.0848                 0.0126026        -30.0717         0.999701        -2.44443         0.999701        -2.44443        0.0120432         156.178
0.0901                 0.0126246        -30.4116         0.999685        -2.59734         0.999685        -2.59734         0.012029         156.238
0.0954                 0.0126469          -30.75         0.999669        -2.75024         0.999669        -2.75024        0.0120152         156.298
0.1007                 0.0126694        -31.0871         0.999653        -2.90315         0.999653        -2.90315        0.0120017         156.359
0.106                  0.0126921        -31.4231         0.999637        -3.05607         0.999637        -3.05607        0.0119885          156.42
0.1113                  0.012715         -31.758         0.999621        -3.20899         0.999621        -3.20899        0.0119755         156.481
0.1166                 0.0127381        -32.0917         0.999605         -3.3619         0.999605         -3.3619        0.0119627         156.542
0.1219                 0.0127614        -32.4242         0.999589        -3.51482         0.999589        -3.51482        0.0119503         156.604
0.1272                  0.012785        -32.7555         0.999573        -3.66775         0.999573        -3.66775        0.0119382         156.666
0.1325                 0.0128088        -33.0858         0.999557        -3.82067         0.999557        -3.82067        0.0119263         156.729
0.1378                 0.0128328        -33.4149         0.999541         -3.9736         0.999541         -3.9736        0.0119146         156.791
0.1431                  0.012857        -33.7429         0.999525        -4.12652         0.999525        -4.12652        0.0119033         156.855
0.1484                 0.0128814        -34.0698         0.999509        -4.27945         0.999509        -4.27945        0.0118922         156.918
0.1537                 0.0129061        -34.3956         0.999492        -4.43238         0.999492        -4.43238        0.0118814         156.982
0.159                  0.0129309        -34.7202         0.999476        -4.58531         0.999476        -4.58531        0.0118709         157.047
0.1643                  0.012956        -35.0438          0.99946        -4.73824          0.99946        -4.73824        0.0118606         157.112
0.1696                 0.0129813        -35.3662         0.999444        -4.89117         0.999444        -4.89117        0.0118506         157.177
0.1749                 0.0130068        -35.6876         0.999427         -5.0441         0.999427         -5.0441        0.0118409         157.242
0.1802                 0.0130325        -36.0078         0.999411        -5.19703         0.999411        -5.19703        0.0118315         157.308
0.1855                 0.0130584        -36.3269         0.999395        -5.34996         0.999395        -5.34996        0.0118223         157.374
0.1908                 0.0130845        -36.6449         0.999378        -5.50289         0.999378        -5.50289        0.0118134          157.44
0.1961                 0.0131109        -36.9619         0.999362        -5.65582         0.999362        -5.65582        0.0118048         157.507
0.2014                 0.0131374        -37.2777         0.999346        -5.80876         0.999346        -5.80876        0.0117964         157.573
0.2067                 0.0131641        -37.5924         0.999329        -5.96169         0.999329        -5.96169        0.0117884         157.641
0.212                   0.013191         -37.906         0.999313        -6.11462         0.999313        -6.11462        0.0117805         157.708
0.2173                 0.0132182        -38.2184         0.999296        -6.26756         0.999296        -6.26756         0.011773         157.776
0.2226                 0.0132455        -38.5298          0.99928        -6.42049          0.99928        -6.42049        0.0117658         157.843
0.2279                  0.013273        -38.8401         0.999263        -6.57342         0.999263        -6.57342        0.0117588         157.912
0.2332                 0.0133007        -39.1492         0.999247        -6.72636         0.999247        -6.72636        0.0117521          157.98
0.2385                 0.0133286        -39.4572          0.99923        -6.87929          0.99923        -6.87929        0.0117457         158.048
0.2438                 0.0133567        -39.7641         0.999214        -7.03223         0.999214        -7.03223        0.0117395         158.117
0.2491                 0.0133849        -40.0699         0.999197        -7.18516         0.999197        -7.18516        0.0117336         158.186
0.2544                 0.0134134        -40.3746          0.99918         -7.3381          0.99918         -7.3381         0.011728         158.254
0.2597                  0.013442        -40.6782         0.999164        -7.49103         0.999164        -7.49103        0.0117227         158.323
0.265                  0.0134708        -40.9807         0.999147        -7.64397         0.999147        -7.64397        0.0117177         158.393
0.2703                 0.0134998         -41.282          0.99913         -7.7969          0.99913         -7.7969        0.0117129         158.462
0.2756                  0.013529        -41.5822         0.999113        -7.94984         0.999113        -7.94984        0.0117084         158.531
0.2809                 0.0135583        -41.8814         0.999097        -8.10277         0.999097        -8.10277        0.0117042           158.6
0.2862                 0.0135879        -42.1794          0.99908        -8.25571          0.99908        -8.25571        0.0117003          158.67
0.2915                 0.0136176        -42.4763         0.999063        -8.40864         0.999063        -8.40864        0.0116966         158.739
0.2968                 0.0136474         -42.772         0.999046        -8.56158         0.999046        -8.56158        0.0116932         158.809
0.3021                 0.0136774        -43.0667         0.999029        -8.71451         0.999029        -8.71451        0.0116901         158.878
0.3074                 0.0137076        -43.3602         0.999012        -8.86745         0.999012        -8.86745        0.0116873         158.948
0.3127                  0.013738        -43.6527         0.998995        -9.02039         0.998995        -9.02039        0.0116847         159.017
0.318                  0.0137685         -43.944         0.998978        -9.17332         0.998978        -9.17332        0.0116824         159.086
0.3233                 0.0137992        -44.2342         0.998961        -9.32626         0.998961        -9.32626        0.0116804         159.156
0.3286                   0.01383        -44.5233         0.998944        -9.47919         0.998944        -9.47919        0.0116787         159.225
0.3339                  0.013861        -44.8113         0.998927        -9.63213         0.998927        -9.63213        0.0116773         159.294
0.3392                 0.0138922        -45.0982          0.99891        -9.78506          0.99891        -9.78506        0.0116761         159.363
0.3445                 0.0139235        -45.3839         0.998893          -9.938         0.998893          -9.938        0.0116752         159.432
0.3498                 0.0139549        -45.6686         0.998876        -10.0909         0.998876        -10.0909        0.0116746         159.501
0.3551                 0.0139865        -45.9521         0.998859        -10.2439         0.998859        -10.2439        0.0116742          159.57
0.3604                 0.0140183        -46.2346         0.998842        -10.3968         0.998842        -10.3968        0.0116742         159.638
0.3657                 0.0140502         -46.516         0.998824        -10.5497         0.998824        -10.5497        0.0116744         159.706
0.371                  0.0140822        -46.7962         0.998807        -10.7027         0.998807        -10.7027        0.0116748         159.775
0.3763                 0.0141144        -47.0754          0.99879        -10.8556          0.99879        -10.8556        0.0116756         159.842
0.3816                 0.0141467        -47.3534         0.998773        -11.0086         0.998773        -11.0086        0.0116766          159.91
0.3869                 0.0141792        -47.6304         0.998755        -11.1615         0.998755        -11.1615        0.0116779         159.977
0.3922                 0.0142118        -47.9062         0.998738        -11.3144         0.998738        -11.3144        0.0116795         160.045
0.3975                 0.0142445         -48.181         0.998721        -11.4674         0.998721        -11.4674        0.0116813         160.111
0.4028                 0.0142773        -48.4547         0.998703        -11.6203         0.998703        -11.6203        0.0116834         160.178
0.4081                 0.0143103        -48.7273         0.998686        -11.7732         0.998686        -11.7732        0.0116858         160.244
0.4134                 0.0143435        -48.9988         0.998668        -11.9262         0.998668        -11.9262        0.0116885          160.31
0.4187                 0.0143767        -49.2693         0.998651        -12.0791         0.998651        -12.0791        0.0116914         160.376
0.424                  0.0144101        -49.5386         0.998634         -12.232         0.998634         -12.232        0.0116946         160.441
0.4293                 0.0144436        -49.8069         0.998616         -12.385         0.998616         -12.385         0.011698         160.506
0.4346                 0.0144772        -50.0741         0.998599        -12.5379         0.998599        -12.5379        0.0117018         160.571
0.4399                 0.0145109        -50.3402         0.998581        -12.6908         0.998581        -12.6908        0.0117058         160.635
0.4452                 0.0145448        -50.6053         0.998563        -12.8438         0.998563        -12.8438          0.01171         160.698
0.4505                 0.0145788        -50.8693         0.998546        -12.9967         0.998546        -12.9967        0.0117145         160.762
0.4558                 0.0146129        -51.1322         0.998528        -13.1497         0.998528        -13.1497        0.0117193         160.825
0.4611                 0.0146471        -51.3941          0.99851        -13.3026          0.99851        -13.3026        0.0117244         160.887
0.4664                 0.0146814        -51.6549         0.998493        -13.4555         0.998493        -13.4555        0.0117297         160.949
0.4717                 0.0147158        -51.9147         0.998475        -13.6085         0.998475        -13.6085        0.0117353          161.01
0.477                  0.0147503        -52.1734         0.998457        -13.7614         0.998457        -13.7614        0.0117411         161.071
0.4823                  0.014785         -52.431          0.99844        -13.9143          0.99844        -13.9143        0.0117472         161.132
0.4876                 0.0148197        -52.6876         0.998422        -14.0673         0.998422        -14.0673        0.0117536         161.192
0.4929                 0.0148545        -52.9432         0.998404        -14.2202         0.998404        -14.2202        0.0117602         161.251
0.4982                 0.0148895        -53.1977         0.998386        -14.3731         0.998386        -14.3731        0.0117671          161.31
0.5035                 0.0149245        -53.4512         0.998368        -14.5261         0.998368        -14.5261        0.0117742         161.368
0.5088                 0.0149597        -53.7037          0.99835         -14.679          0.99835         -14.679        0.0117816         161.426
0.5141                 0.0149949        -53.9551         0.998332        -14.8319         0.998332        -14.8319        0.0117893         161.483
0.5194                 0.0150302        -54.2055         0.998315        -14.9849         0.998315        -14.9849        0.0117972         161.539
0.5247                 0.0150657        -54.4549         0.998297        -15.1378         0.998297        -15.1378        0.0118053         161.595
0.53                   0.0151012        -54.7032         0.998279        -15.2907         0.998279        -15.2907        0.0118137         161.651
0.5353                 0.0151368        -54.9505         0.998261        -15.4437         0.998261        -15.4437        0.0118224         161.705
0.5406                 0.0151725        -55.1969         0.998243        -15.5966         0.998243        -15.5966        0.0118313         161.759
0.5459                 0.0152083        -55.4422         0.998224        -15.7496         0.998224        -15.7496        0.0118404         161.812
0.5512                 0.0152441        -55.6865         0.998206        -15.9025         0.998206        -15.9025        0.0118498         161.865
0.5565                 0.0152801        -55.9298         0.998188        -16.0554         0.998188        -16.0554        0.0118595         161.917
0.5618                 0.0153161        -56.1721          0.99817        -16.2084          0.99817        -16.2084        0.0118694         161.968
0.5671                 0.0153522        -56.4134         0.998152        -16.3613         0.998152        -16.3613        0.0118795         162.019
0.5724                 0.0153884        -56.6538         0.998134        -16.5142         0.998134        -16.5142        0.0118899         162.068
0.5777                 0.0154247        -56.8931         0.998116        -16.6672         0.998116        -16.6672        0.0119005         162.117
0.583                   0.015461        -57.1315         0.998097        -16.8201         0.998097        -16.8201        0.0119114         162.166
0.5883                 0.0154975        -57.3688         0.998079         -16.973         0.998079         -16.973        0.0119225         162.213
0.5936                  0.015534        -57.6052         0.998061         -17.126         0.998061         -17.126        0.0119338          162.26
0.5989                 0.0155705        -57.8406         0.998042        -17.2789         0.998042        -17.2789        0.0119454         162.306
0.6042                 0.0156071        -58.0751         0.998024        -17.4318         0.998024        -17.4318        0.0119572         162.351
0.6095                 0.0156438        -58.3086         0.998006        -17.5848         0.998006        -17.5848        0.0119692         162.396
0.6148                 0.0156806        -58.5411         0.997987        -17.7377         0.997987        -17.7377        0.0119815         162.439
0.6201                 0.0157174        -58.7727         0.997969        -17.8906         0.997969        -17.8906         0.011994         162.482
0.6254                 0.0157543        -59.0033         0.997951        -18.0436         0.997951        -18.0436        0.0120067         162.524
0.6307                 0.0157913         -59.233         0.997932        -18.1965         0.997932        -18.1965        0.0120197         162.565
0.636                  0.0158283        -59.4617         0.997914        -18.3494         0.997914        -18.3494        0.0120328         162.605
0.6413                 0.0158654        -59.6894         0.997895        -18.5024         0.997895        -18.5024        0.0120462         162.644
0.6466                 0.0159025        -59.9163         0.997877        -18.6553         0.997877        -18.6553        0.0120599         162.683
0.6519                 0.0159397        -60.1422         0.997858        -18.8082         0.997858        -18.8082        0.0120737         162.721
0.6572                  0.015977        -60.3672         0.997839        -18.9612         0.997839        -18.9612        0.0120878         162.757
0.6625                 0.0160143        -60.5912         0.997821        -19.1141         0.997821        -19.1141        0.0121021         162.793
0.6678                 0.0160516        -60.8143         0.997802         -19.267         0.997802         -19.267        0.0121166         162.828
0.6731                  0.016089        -61.0365         0.997784          -19.42         0.997784          -19.42        0.0121313         162.862
0.6784                 0.0161265        -61.2578         0.997765        -19.5729         0.997765        -19.5729        0.0121463         162.895
0.6837                  0.016164        -61.4782         0.997746        -19.7258         0.997746        -19.7258        0.0121614         162.928
0.689                  0.0162015        -61.6977         0.997727        -19.8788         0.997727        -19.8788        0.0121768         162.959
0.6943                 0.0162391        -61.9162         0.997709        -20.0317         0.997709        -20.0317        0.0121924         162.989
0.6996                 0.0162767        -62.1339          0.99769        -20.1846          0.99769        -20.1846        0.0122081         163.019
0.7049                 0.0163144        -62.3507         0.997671        -20.3376         0.997671        -20.3376        0.0122241         163.047
0.7102                 0.0163521        -62.5665         0.997652        -20.4905         0.997652        -20.4905        0.0122403         163.074
0.7155                 0.0163899        -62.7815         0.997633        -20.6434         0.997633        -20.6434        0.0122567         163.101
0.7208                 0.0164277        -62.9956         0.997614        -20.7964         0.997614        -20.7964        0.0122733         163.126
0.7261                 0.0164655        -63.2088         0.997596        -20.9493         0.997596        -20.9493        0.0122901         163.151
0.7314                 0.0165034        -63.4212         0.997577        -21.1023         0.997577        -21.1023        0.0123071         163.175
0.7367                 0.0165413        -63.6327         0.997558        -21.2552         0.997558        -21.2552        0.0123243         163.197
0.742                  0.0165792        -63.8433         0.997539        -21.4081         0.997539        -21.4081        0.0123417         163.219
0.7473                 0.0166172         -64.053          0.99752        -21.5611          0.99752        -21.5611        0.0123593         163.239
0.7526                 0.0166552        -64.2619         0.997501         -21.714         0.997501         -21.714        0.0123771         163.259
0.7579                 0.0166932        -64.4699         0.997482        -21.8669         0.997482        -21.8669        0.0123951         163.277
0.7632                 0.0167313        -64.6771         0.997463        -22.0199         0.997463        -22.0199        0.0124132         163.295
0.7685                 0.0167694        -64.8834         0.997443        -22.1728         0.997443        -22.1728        0.0124316         163.311
0.7738                 0.0168075        -65.0889         0.997424        -22.3257         0.997424        -22.3257        0.0124501         163.327
0.7791                 0.0168457        -65.2935         0.997405        -22.4787         0.997405        -22.4787        0.0124688         163.341
0.7844                 0.0168838        -65.4973         0.997386        -22.6316         0.997386        -22.6316        0.0124877         163.355
0.7897                  0.016922        -65.7002         0.997367        -22.7845         0.997367        -22.7845        0.0125068         163.367
0.795                  0.0169602        -65.9024         0.997348        -22.9374         0.997348        -22.9374        0.0125261         163.378
0.8003                 0.0169984        -66.1036         0.997328        -23.0904         0.997328        -23.0904        0.0125455         163.389
0.8056                 0.0170367        -66.3041         0.997309        -23.2433         0.997309        -23.2433        0.0125652         163.398
0.8109                  0.017075        -66.5038          0.99729        -23.3962          0.99729        -23.3962        0.0125849         163.406
0.8162                 0.0171132        -66.7026         0.997271        -23.5492         0.997271        -23.5492        0.0126049         163.413
0.8215                 0.0171515        -66.9007         0.997251        -23.7021         0.997251        -23.7021         0.012625         163.419
0.8268                 0.0171899        -67.0978         0.997232         -23.855         0.997232         -23.855        0.0126454         163.424
0.8321                 0.0172282        -67.2942         0.997212         -24.008         0.997212         -24.008        0.0126658         163.428
0.8374                 0.0172665        -67.4898         0.997193        -24.1609         0.997193        -24.1609        0.0126865         163.431
0.8427                 0.0173049        -67.6847         0.997174        -24.3138         0.997174        -24.3138        0.0127073         163.433
0.848                  0.0173432        -67.8787         0.997154        -24.4668         0.997154        -24.4668        0.0127283         163.433
0.8533                 0.0173816        -68.0719         0.997135        -24.6197         0.997135        -24.6197        0.0127494         163.433
0.8586                   0.01742        -68.2643         0.997115        -24.7726         0.997115        -24.7726        0.0127707         163.431
0.8639                 0.0174584         -68.456         0.997096        -24.9256         0.997096        -24.9256        0.0127922         163.429
0.8692                 0.0174967        -68.6468         0.997076        -25.0785         0.997076        -25.0785        0.0128138         163.425
0.8745                 0.0175351        -68.8369         0.997056        -25.2314         0.997056        -25.2314        0.0128355          163.42
0.8798                 0.0175735        -69.0262         0.997037        -25.3844         0.997037        -25.3844        0.0128575         163.415
0.8851                 0.0176119        -69.2148         0.997017        -25.5373         0.997017        -25.5373        0.0128795         163.408
0.8904                 0.0176503        -69.4026         0.996998        -25.6902         0.996998        -25.6902        0.0129018           163.4
0.8957                 0.0176888        -69.5896         0.996978        -25.8432         0.996978        -25.8432        0.0129241          163.39
0.901                  0.0177272        -69.7758         0.996958        -25.9961         0.996958        -25.9961        0.0129466          163.38
0.9063                 0.0177656        -69.9613         0.996939         -26.149         0.996939         -26.149        0.0129693         163.369
0.9116                  0.017804        -70.1461         0.996919         -26.302         0.996919         -26.302        0.0129921         163.357
0.9169                 0.0178424        -70.3301         0.996899        -26.4549         0.996899        -26.4549        0.0130151         163.343
0.9222                 0.0178807        -70.5133         0.996879        -26.6078         0.996879        -26.6078        0.0130382         163.328
0.9275                 0.0179191        -70.6958         0.996859        -26.7608         0.996859        -26.7608        0.0130614         163.313
0.9328                 0.0179575        -70.8776          0.99684        -26.9137          0.99684        -26.9137        0.0130848         163.296
0.9381                 0.0179959        -71.0586          0.99682        -27.0666          0.99682        -27.0666        0.0131083         163.278
0.9434                 0.0180343        -71.2389           0.9968        -27.2196           0.9968        -27.2196        0.0131319         163.259
0.9487                 0.0180726        -71.4185          0.99678        -27.3725          0.99678        -27.3725        0.0131557         163.239
0.954                   0.018111        -71.5973          0.99676        -27.5254          0.99676        -27.5254        0.0131796         163.218
0.9593                 0.0181493        -71.7754          0.99674        -27.6784          0.99674        -27.6784        0.0132036         163.195
0.9646                 0.0181876        -71.9528          0.99672        -27.8313          0.99672        -27.8313        0.0132278         163.172
0.9699                 0.0182259        -72.1295           0.9967        -27.9842           0.9967        -27.9842        0.0132521         163.147
0.9752                 0.0182642        -72.3054          0.99668        -28.1372          0.99668        -28.1372        0.0132765         163.122
0.9805                 0.0183025        -72.4807          0.99666        -28.2901          0.99666        -28.2901         0.013301         163.095
0.9858                 0.0183408        -72.6552          0.99664         -28.443          0.99664         -28.443        0.0133257         163.067
0.9911                  0.018379         -72.829          0.99662         -28.596          0.99662         -28.596        0.0133505         163.038
0.9964                 0.0184173        -73.0021           0.9966        -28.7489           0.9966        -28.7489        0.0133754         163.008