! TOUCHSTONE file generated by CST MICROWAVE STUDIO
! Date and time: Tue Jan  7 09:43:48 2020
! Project name: OSHPark_FR408_Transition2.cst
! Parameters = {GND_Plane_XMax=12; Cap_Disk_XOffset=0; Cap_Disk2_YCenter=-1.03; Cap_Disk_YCenter=1.03; Cap_Disk_XCenter=7.39; Cap_Disk_Radius=0.5; BottomSupport_Left_YMax=4.76; BottomSupport_Left_YMin=3.74; BottomSupport_Right_YMax=-3.74; BottomSupport_Right_YMin=-4.76; BottomSupport_XMax=11.64; BottomSupport_XMin=6.89; BottomSupport_ZMax=-1.64084; BottomSupport_ZMin=-3.58; Cu1_Thickness=0.03556; Cu2_Thickness=0.01778; Fr408Core_Thickness=1.1938; GND_Plane_Offset=2.9; PCBThickness=1.6256; Prepreg1_Zmin=-0.20574; Prepreg_Thickness=0.17018; RFTraceYMax=0.17145; RFTrace_XMax=15; RFTrace_XMin=11.46; RFTrace_YMin=-0.17145; SMA_CenterCond_Inner_XMax=11.64; SMA_CenterCond_Radius=0.6; SMA_Dielectric_InnerRadius=0.6; SMA_Dielectric_OuterRadius=2; SMA_Dielectric_XMax=5.62; SMA_Dielectric_XMin=0; SMA_Dielectric_YCenter=0; SMA_Dielectric_ZCenter=0; SMA_Footprint_Center_XMax=12.49; SMA_Footprint_Center_XMin=7.74; SMA_Footprint_Center_YMax=0.75; SMA_Footprint_Center_YMin=-0.75; SMA_OuterCond_InnerRadius=2; SMA_OuterCond_OuterRadius=3; SMA_OuterCond_XMax=6.89; SMA_XMax=6.67; SMA_XMin=0; SMA_YCenter=0; SMA_ZCenter=0; TopSupport_ZMax=1.02; TopSupport_ZMin=0; Via1_XCenter=7.5; Via1_YCenter=-4.25; Via2_XCenter=8.75; Via2_YCenter=-4.25; Via3_XCenter=10; Via3_YCenter=-4.25; Via4_XCenter=11.25; Via4_YCenter=-4.25; Via5_XCenter=7.5; Via5_YCenter=4.25; Via6_XCenter=8.75; Via6_YCenter=4.25; Via7_XCenter=10; Via7_YCenter=4.25; Via8_XCenter=11.25; Via8_YCenter=4.25; ViaInnerRadius=0; ViaOuterRadius=0.381}
! Header version: 2015
! Port assignment regex: !\s*Touchstone port\s*([0-9]+)\s*=\s*CST MWS port\s*([0-9]+)\s*\(\"(.*)\"\)(\s*mode\s*([0-9]+))?.*
! Touchstone port assignment:
! Touchstone port 1 = CST MWS port 1 ("")
! Touchstone port 2 = CST MWS port 2 ("")
# GHz S MA R 50
0                      0.0635997               0         0.943015               0         0.943015               0        0.0503563               0
0.0053                 0.0107304        -28.5075         0.999972       -0.158235         0.999972       -0.158235        0.0108688         150.593
0.0106                 0.0108052        -29.2311         0.999943       -0.305612         0.999943       -0.305612        0.0107956         151.025
0.0159                 0.0108459        -29.7353         0.999922       -0.456029         0.999922       -0.456029        0.0107519          151.22
0.0212                 0.0108796        -30.1797         0.999902       -0.607205         0.999902       -0.607205        0.0107171         151.361
0.0265                  0.010911         -30.598         0.999883       -0.758684         0.999883       -0.758684        0.0106863         151.482
0.0318                 0.0109407        -31.0053         0.999864       -0.910315         0.999864       -0.910315         0.010657         151.592
0.0371                 0.0109702        -31.4023         0.999846        -1.06203         0.999846        -1.06203        0.0106294         151.698
0.0424                 0.0110011        -31.7871         0.999827         -1.2138         0.999827         -1.2138        0.0106043         151.808
0.0477                 0.0110311        -32.1699         0.999809        -1.36561         0.999809        -1.36561        0.0105792         151.915
0.053                  0.0110605        -32.5514         0.999791        -1.51744         0.999791        -1.51744         0.010554         152.019
0.0583                 0.0110892        -32.9331         0.999772        -1.66929         0.999772        -1.66929        0.0105283         152.121
0.0636                 0.0111182        -33.3116         0.999754        -1.82115         0.999754        -1.82115        0.0105033         152.224
0.0689                 0.0111475        -33.6871         0.999736        -1.97302         0.999736        -1.97302        0.0104789         152.328
0.0742                  0.011177        -34.0605         0.999718         -2.1249         0.999718         -2.1249        0.0104549         152.433
0.0795                 0.0112066        -34.4322         0.999699        -2.27679         0.999699        -2.27679        0.0104312         152.538
0.0848                 0.0112363        -34.8024         0.999681        -2.42868         0.999681        -2.42868        0.0104077         152.645
0.0901                 0.0112662         -35.171         0.999663        -2.58057         0.999663        -2.58057        0.0103844         152.752
0.0954                 0.0112962        -35.5379         0.999645        -2.73247         0.999645        -2.73247        0.0103615          152.86
0.1007                 0.0113263        -35.9033         0.999626        -2.88437         0.999626        -2.88437        0.0103388         152.969
0.106                  0.0113566        -36.2672         0.999608        -3.03628         0.999608        -3.03628        0.0103164         153.079
0.1113                 0.0113871        -36.6296          0.99959        -3.18818          0.99959        -3.18818        0.0102943          153.19
0.1166                 0.0114178        -36.9906         0.999572        -3.34009         0.999572        -3.34009        0.0102724         153.303
0.1219                 0.0114486        -37.3501         0.999553        -3.49199         0.999553        -3.49199        0.0102508         153.416
0.1272                 0.0114795        -37.7082         0.999535         -3.6439         0.999535         -3.6439        0.0102294          153.53
0.1325                 0.0115106         -38.065         0.999517        -3.79581         0.999517        -3.79581        0.0102083         153.646
0.1378                 0.0115419        -38.4203         0.999499        -3.94772         0.999499        -3.94772        0.0101875         153.762
0.1431                 0.0115734        -38.7743          0.99948        -4.09963          0.99948        -4.09963        0.0101669          153.88
0.1484                  0.011605        -39.1269         0.999462        -4.25154         0.999462        -4.25154        0.0101466         153.999
0.1537                 0.0116368        -39.4782         0.999444        -4.40345         0.999444        -4.40345        0.0101265         154.119
0.159                  0.0116687        -39.8282         0.999425        -4.55536         0.999425        -4.55536        0.0101068          154.24
0.1643                 0.0117008        -40.1767         0.999407        -4.70727         0.999407        -4.70727        0.0100873         154.362
0.1696                 0.0117331         -40.524         0.999389        -4.85918         0.999389        -4.85918         0.010068         154.485
0.1749                 0.0117655        -40.8699          0.99937         -5.0111          0.99937         -5.0111         0.010049         154.609
0.1802                 0.0117981        -41.2145         0.999352        -5.16301         0.999352        -5.16301        0.0100303         154.734
0.1855                 0.0118308        -41.5578         0.999333        -5.31492         0.999333        -5.31492        0.0100119          154.86
0.1908                 0.0118637        -41.8998         0.999315        -5.46683         0.999315        -5.46683       0.00999369         154.987
0.1961                 0.0118967        -42.2405         0.999297        -5.61874         0.999297        -5.61874       0.00997579         155.116
0.2014                 0.0119299        -42.5799         0.999278        -5.77065         0.999278        -5.77065       0.00995816         155.245
0.2067                 0.0119632         -42.918          0.99926        -5.92256          0.99926        -5.92256       0.00994081         155.375
0.212                  0.0119967        -43.2548         0.999241        -6.07447         0.999241        -6.07447       0.00992372         155.507
0.2173                 0.0120303        -43.5903         0.999223        -6.22638         0.999223        -6.22638       0.00990694         155.639
0.2226                  0.012064        -43.9245         0.999204        -6.37829         0.999204        -6.37829       0.00989042         155.772
0.2279                 0.0120979        -44.2575         0.999186         -6.5302         0.999186         -6.5302       0.00987418         155.906
0.2332                  0.012132        -44.5893         0.999167        -6.68211         0.999167        -6.68211       0.00985822         156.042
0.2385                 0.0121662        -44.9197         0.999149        -6.83402         0.999149        -6.83402       0.00984254         156.178
0.2438                 0.0122005        -45.2489          0.99913        -6.98592          0.99913        -6.98592       0.00982716         156.315
0.2491                 0.0122349        -45.5768         0.999112        -7.13783         0.999112        -7.13783       0.00981206         156.453
0.2544                 0.0122695        -45.9035         0.999093        -7.28974         0.999093        -7.28974       0.00979724         156.591
0.2597                 0.0123042         -46.229         0.999075        -7.44165         0.999075        -7.44165        0.0097827         156.731
0.265                  0.0123391        -46.5532         0.999056        -7.59355         0.999056        -7.59355       0.00976846         156.871
0.2703                  0.012374        -46.8762         0.999038        -7.74546         0.999038        -7.74546       0.00975452         157.013
0.2756                 0.0124092        -47.1979         0.999019        -7.89737         0.999019        -7.89737       0.00974086         157.155
0.2809                 0.0124444        -47.5185         0.999001        -8.04927         0.999001        -8.04927       0.00972749         157.298
0.2862                 0.0124797        -47.8378         0.998982        -8.20118         0.998982        -8.20118       0.00971441         157.441
0.2915                 0.0125152        -48.1559         0.998963        -8.35308         0.998963        -8.35308       0.00970163         157.586
0.2968                 0.0125508        -48.4728         0.998945        -8.50499         0.998945        -8.50499       0.00968916         157.731
0.3021                 0.0125865        -48.7885         0.998926        -8.65689         0.998926        -8.65689       0.00967698         157.877
0.3074                 0.0126223         -49.103         0.998907        -8.80879         0.998907        -8.80879       0.00966508         158.023
0.3127                 0.0126583        -49.4163         0.998889         -8.9607         0.998889         -8.9607       0.00965349         158.171
0.318                  0.0126943        -49.7285          0.99887         -9.1126          0.99887         -9.1126       0.00964219         158.319
0.3233                 0.0127305        -50.0394         0.998851         -9.2645         0.998851         -9.2645       0.00963122         158.467
0.3286                 0.0127667        -50.3491         0.998833         -9.4164         0.998833         -9.4164       0.00962053         158.616
0.3339                 0.0128031        -50.6577         0.998814        -9.56831         0.998814        -9.56831       0.00961014         158.766
0.3392                 0.0128396        -50.9652         0.998795        -9.72021         0.998795        -9.72021       0.00960006         158.917
0.3445                 0.0128762        -51.2715         0.998777        -9.87211         0.998777        -9.87211       0.00959027         159.068
0.3498                 0.0129129        -51.5766         0.998758         -10.024         0.998758         -10.024       0.00958081         159.219
0.3551                 0.0129497        -51.8805         0.998739        -10.1759         0.998739        -10.1759       0.00957165         159.371
0.3604                 0.0129866        -52.1834          0.99872        -10.3278          0.99872        -10.3278       0.00956278         159.524
0.3657                 0.0130236        -52.4851         0.998701        -10.4797         0.998701        -10.4797       0.00955422         159.677
0.371                  0.0130607        -52.7857         0.998683        -10.6316         0.998683        -10.6316       0.00954597          159.83
0.3763                 0.0130979        -53.0851         0.998664        -10.7835         0.998664        -10.7835       0.00953804         159.984
0.3816                 0.0131352        -53.3834         0.998645        -10.9354         0.998645        -10.9354       0.00953042         160.138
0.3869                 0.0131726        -53.6806         0.998626        -11.0873         0.998626        -11.0873       0.00952309         160.293
0.3922                   0.01321        -53.9767         0.998607        -11.2392         0.998607        -11.2392       0.00951607         160.448
0.3975                 0.0132476        -54.2717         0.998589        -11.3911         0.998589        -11.3911       0.00950937         160.603
0.4028                 0.0132852        -54.5655          0.99857         -11.543          0.99857         -11.543       0.00950298         160.759
0.4081                  0.013323        -54.8583         0.998551        -11.6949         0.998551        -11.6949       0.00949691         160.915
0.4134                 0.0133608          -55.15         0.998532        -11.8468         0.998532        -11.8468       0.00949113         161.071
0.4187                 0.0133987        -55.4407         0.998513        -11.9987         0.998513        -11.9987       0.00948567         161.227
0.424                  0.0134367        -55.7302         0.998494        -12.1506         0.998494        -12.1506       0.00948052         161.384
0.4293                 0.0134747        -56.0187         0.998475        -12.3024         0.998475        -12.3024       0.00947569         161.541
0.4346                 0.0135129        -56.3061         0.998456        -12.4543         0.998456        -12.4543       0.00947117         161.698
0.4399                 0.0135511        -56.5925         0.998437        -12.6062         0.998437        -12.6062       0.00946695         161.855
0.4452                 0.0135894        -56.8778         0.998418        -12.7581         0.998418        -12.7581       0.00946305         162.012
0.4505                 0.0136277         -57.162         0.998399          -12.91         0.998399          -12.91       0.00945945          162.17
0.4558                 0.0136662        -57.4452          0.99838        -13.0619          0.99838        -13.0619       0.00945618         162.327
0.4611                 0.0137047        -57.7274         0.998361        -13.2138         0.998361        -13.2138       0.00945323         162.485
0.4664                 0.0137433        -58.0086         0.998342        -13.3657         0.998342        -13.3657       0.00945057         162.642
0.4717                 0.0137819        -58.2887         0.998323        -13.5176         0.998323        -13.5176       0.00944822           162.8
0.477                  0.0138206        -58.5678         0.998304        -13.6695         0.998304        -13.6695       0.00944618         162.957
0.4823                 0.0138594        -58.8459         0.998285        -13.8214         0.998285        -13.8214       0.00944447         163.115
0.4876                 0.0138983        -59.1229         0.998266        -13.9732         0.998266        -13.9732       0.00944307         163.272
0.4929                 0.0139372         -59.399         0.998247        -14.1251         0.998247        -14.1251       0.00944197         163.429
0.4982                 0.0139761        -59.6741         0.998228         -14.277         0.998228         -14.277       0.00944117         163.586
0.5035                 0.0140151        -59.9483         0.998209        -14.4289         0.998209        -14.4289       0.00944069         163.743
0.5088                 0.0140542        -60.2213          0.99819        -14.5808          0.99819        -14.5808       0.00944053           163.9
0.5141                 0.0140934        -60.4935          0.99817        -14.7327          0.99817        -14.7327       0.00944068         164.057
0.5194                 0.0141326        -60.7646         0.998151        -14.8846         0.998151        -14.8846       0.00944112         164.213
0.5247                 0.0141718        -61.0348         0.998132        -15.0364         0.998132        -15.0364       0.00944187         164.369
0.53                   0.0142111        -61.3041         0.998113        -15.1883         0.998113        -15.1883       0.00944293         164.525
0.5353                 0.0142505        -61.5723         0.998094        -15.3402         0.998094        -15.3402       0.00944431         164.681
0.5406                 0.0142899        -61.8396         0.998075        -15.4921         0.998075        -15.4921       0.00944599         164.836
0.5459                 0.0143293         -62.106         0.998055         -15.644         0.998055         -15.644       0.00944797         164.991
0.5512                 0.0143688        -62.3715         0.998036        -15.7958         0.998036        -15.7958       0.00945025         165.145
0.5565                 0.0144084         -62.636         0.998017        -15.9477         0.998017        -15.9477       0.00945283           165.3
0.5618                  0.014448        -62.8995         0.997998        -16.0996         0.997998        -16.0996       0.00945573         165.453
0.5671                 0.0144876        -63.1622         0.997978        -16.2515         0.997978        -16.2515       0.00945893         165.607
0.5724                 0.0145273        -63.4239         0.997959        -16.4034         0.997959        -16.4034       0.00946242         165.759
0.5777                  0.014567        -63.6848          0.99794        -16.5552          0.99794        -16.5552       0.00946621         165.912
0.583                  0.0146068        -63.9447          0.99792        -16.7071          0.99792        -16.7071        0.0094703         166.064
0.5883                 0.0146466        -64.2037         0.997901         -16.859         0.997901         -16.859        0.0094747         166.215
0.5936                 0.0146864        -64.4618         0.997882        -17.0109         0.997882        -17.0109        0.0094794         166.366
0.5989                 0.0147263         -64.719         0.997862        -17.1628         0.997862        -17.1628       0.00948438         166.516
0.6042                 0.0147662        -64.9753         0.997843        -17.3146         0.997843        -17.3146       0.00948965         166.666
0.6095                 0.0148061        -65.2308         0.997824        -17.4665         0.997824        -17.4665       0.00949522         166.815
0.6148                 0.0148461        -65.4854         0.997804        -17.6184         0.997804        -17.6184        0.0095011         166.963
0.6201                 0.0148861        -65.7391         0.997785        -17.7703         0.997785        -17.7703       0.00950726         167.111
0.6254                 0.0149261        -65.9919         0.997766        -17.9221         0.997766        -17.9221        0.0095137         167.258
0.6307                 0.0149662        -66.2439         0.997746         -18.074         0.997746         -18.074       0.00952044         167.404
0.636                  0.0150063        -66.4951         0.997727        -18.2259         0.997727        -18.2259       0.00952745         167.549
0.6413                 0.0150464        -66.7454         0.997707        -18.3778         0.997707        -18.3778       0.00953477         167.694
0.6466                 0.0150865        -66.9948         0.997688        -18.5296         0.997688        -18.5296       0.00954237         167.838
0.6519                 0.0151267        -67.2434         0.997668        -18.6815         0.997668        -18.6815       0.00955025         167.982
0.6572                 0.0151669        -67.4912         0.997649        -18.8334         0.997649        -18.8334        0.0095584         168.124
0.6625                 0.0152071        -67.7381         0.997629        -18.9852         0.997629        -18.9852       0.00956684         168.266
0.6678                 0.0152473        -67.9842          0.99761        -19.1371          0.99761        -19.1371       0.00957556         168.407
0.6731                 0.0152875        -68.2295          0.99759         -19.289          0.99759         -19.289       0.00958456         168.547
0.6784                 0.0153278         -68.474         0.997571        -19.4409         0.997571        -19.4409       0.00959383         168.686
0.6837                 0.0153681        -68.7177         0.997551        -19.5927         0.997551        -19.5927       0.00960337         168.824
0.689                  0.0154084        -68.9606         0.997532        -19.7446         0.997532        -19.7446       0.00961318         168.961
0.6943                 0.0154487        -69.2027         0.997512        -19.8965         0.997512        -19.8965       0.00962328         169.097
0.6996                  0.015489        -69.4439         0.997492        -20.0483         0.997492        -20.0483       0.00963364         169.233
0.7049                 0.0155293        -69.6844         0.997473        -20.2002         0.997473        -20.2002       0.00964426         169.367
0.7102                 0.0155697        -69.9242         0.997453        -20.3521         0.997453        -20.3521       0.00965515         169.501
0.7155                   0.01561        -70.1631         0.997434        -20.5039         0.997434        -20.5039        0.0096663         169.633
0.7208                 0.0156504        -70.4013         0.997414        -20.6558         0.997414        -20.6558       0.00967772         169.765
0.7261                 0.0156908        -70.6386         0.997394        -20.8077         0.997394        -20.8077        0.0096894         169.895
0.7314                 0.0157311        -70.8753         0.997375        -20.9595         0.997375        -20.9595       0.00970133         170.024
0.7367                 0.0157715        -71.1112         0.997355        -21.1114         0.997355        -21.1114       0.00971352         170.153
0.742                  0.0158119        -71.3463         0.997335        -21.2632         0.997335        -21.2632       0.00972596          170.28
0.7473                 0.0158523        -71.5806         0.997316        -21.4151         0.997316        -21.4151       0.00973867         170.406
0.7526                 0.0158927        -71.8142         0.997296         -21.567         0.997296         -21.567       0.00975163         170.531
0.7579                 0.0159331        -72.0471         0.997276        -21.7188         0.997276        -21.7188       0.00976483         170.655
0.7632                 0.0159735        -72.2793         0.997256        -21.8707         0.997256        -21.8707       0.00977827         170.778
0.7685                 0.0160139        -72.5107         0.997237        -22.0226         0.997237        -22.0226       0.00979196           170.9
0.7738                 0.0160542        -72.7413         0.997217        -22.1744         0.997217        -22.1744        0.0098059          171.02
0.7791                 0.0160946        -72.9713         0.997197        -22.3263         0.997197        -22.3263       0.00982009          171.14
0.7844                  0.016135        -73.2005         0.997177        -22.4781         0.997177        -22.4781        0.0098345         171.258
0.7897                 0.0161754         -73.429         0.997157          -22.63         0.997157          -22.63       0.00984916         171.375
0.795                  0.0162158        -73.6569         0.997138        -22.7819         0.997138        -22.7819       0.00986404         171.491
0.8003                 0.0162561        -73.8839         0.997118        -22.9337         0.997118        -22.9337       0.00987917         171.605
0.8056                 0.0162965        -74.1103         0.997098        -23.0856         0.997098        -23.0856       0.00989453         171.719
0.8109                 0.0163368        -74.3361         0.997078        -23.2374         0.997078        -23.2374       0.00991011         171.831
0.8162                 0.0163772        -74.5611         0.997058        -23.3893         0.997058        -23.3893       0.00992592         171.942
0.8215                 0.0164175        -74.7854         0.997038        -23.5411         0.997038        -23.5411       0.00994195         172.052
0.8268                 0.0164578         -75.009         0.997018         -23.693         0.997018         -23.693       0.00995822          172.16
0.8321                 0.0164981         -75.232         0.996998        -23.8449         0.996998        -23.8449       0.00997471         172.267
0.8374                 0.0165384        -75.4543         0.996979        -23.9967         0.996979        -23.9967       0.00999141         172.373
0.8427                 0.0165787        -75.6759         0.996959        -24.1486         0.996959        -24.1486        0.0100083         172.478
0.848                   0.016619        -75.8968         0.996939        -24.3004         0.996939        -24.3004        0.0100255         172.581
0.8533                 0.0166592        -76.1171         0.996919        -24.4523         0.996919        -24.4523        0.0100428         172.683
0.8586                 0.0166994        -76.3367         0.996899        -24.6041         0.996899        -24.6041        0.0100604         172.784
0.8639                 0.0167396        -76.5557         0.996879         -24.756         0.996879         -24.756        0.0100781         172.883
0.8692                 0.0167798         -76.774         0.996859        -24.9078         0.996859        -24.9078        0.0100961         172.981
0.8745                   0.01682        -76.9917         0.996839        -25.0597         0.996839        -25.0597        0.0101143         173.078
0.8798                 0.0168601        -77.2086         0.996819        -25.2115         0.996819        -25.2115        0.0101326         173.174
0.8851                 0.0169002         -77.425         0.996799        -25.3634         0.996799        -25.3634        0.0101512         173.268
0.8904                 0.0169403        -77.6407         0.996778        -25.5152         0.996778        -25.5152          0.01017         173.361
0.8957                 0.0169804        -77.8558         0.996758        -25.6671         0.996758        -25.6671         0.010189         173.452
0.901                  0.0170205        -78.0703         0.996738        -25.8189         0.996738        -25.8189        0.0102081         173.542
0.9063                 0.0170605        -78.2841         0.996718        -25.9708         0.996718        -25.9708        0.0102275         173.631
0.9116                 0.0171005        -78.4973         0.996698        -26.1226         0.996698        -26.1226         0.010247         173.718
0.9169                 0.0171405          -78.71         0.996678        -26.2745         0.996678        -26.2745        0.0102668         173.804
0.9222                 0.0171804         -78.922         0.996658        -26.4263         0.996658        -26.4263        0.0102867         173.889
0.9275                 0.0172203        -79.1334         0.996638        -26.5782         0.996638        -26.5782        0.0103068         173.972
0.9328                 0.0172602        -79.3441         0.996617          -26.73         0.996617          -26.73         0.010327         174.054
0.9381                 0.0173001        -79.5543         0.996597        -26.8819         0.996597        -26.8819        0.0103475         174.135
0.9434                 0.0173399        -79.7638         0.996577        -27.0337         0.996577        -27.0337        0.0103681         174.214
0.9487                 0.0173797        -79.9728         0.996557        -27.1856         0.996557        -27.1856        0.0103889         174.292
0.954                  0.0174194        -80.1812         0.996537        -27.3374         0.996537        -27.3374        0.0104099         174.368
0.9593                 0.0174591         -80.389         0.996516        -27.4892         0.996516        -27.4892        0.0104311         174.443
0.9646                 0.0174988        -80.5962         0.996496        -27.6411         0.996496        -27.6411        0.0104524         174.517
0.9699                 0.0175385        -80.8028         0.996476        -27.7929         0.996476        -27.7929        0.0104738         174.589
0.9752                 0.0175781        -81.0089         0.996456        -27.9448         0.996456        -27.9448        0.0104955          174.66
0.9805                 0.0176177        -81.2143         0.996435        -28.0966         0.996435        -28.0966        0.0105173          174.73
0.9858                 0.0176572        -81.4192         0.996415        -28.2485         0.996415        -28.2485        0.0105392         174.798
0.9911                 0.0176967        -81.6235         0.996395        -28.4003         0.996395        -28.4003        0.0105614         174.865
0.9964                 0.0177361        -81.8273         0.996374        -28.5521         0.996374        -28.5521        0.0105836          174.93