! TOUCHSTONE file generated by CST MICROWAVE STUDIO
! Date and time: Tue Jan  7 09:43:33 2020
! Project name: OSHPark_FR408_Transition2.cst
! Parameters = {GND_Plane_XMax=13; Cap_Disk_XOffset=0; Cap_Disk2_YCenter=-1.03; Cap_Disk_YCenter=1.03; Cap_Disk_XCenter=7.39; Cap_Disk_Radius=0.5; BottomSupport_Left_YMax=4.76; BottomSupport_Left_YMin=3.74; BottomSupport_Right_YMax=-3.74; BottomSupport_Right_YMin=-4.76; BottomSupport_XMax=11.64; BottomSupport_XMin=6.89; BottomSupport_ZMax=-1.64084; BottomSupport_ZMin=-3.58; Cu1_Thickness=0.03556; Cu2_Thickness=0.01778; Fr408Core_Thickness=1.1938; GND_Plane_Offset=2.85; PCBThickness=1.6256; Prepreg1_Zmin=-0.20574; Prepreg_Thickness=0.17018; RFTraceYMax=0.17145; RFTrace_XMax=15; RFTrace_XMin=11.46; RFTrace_YMin=-0.17145; SMA_CenterCond_Inner_XMax=11.64; SMA_CenterCond_Radius=0.6; SMA_Dielectric_InnerRadius=0.6; SMA_Dielectric_OuterRadius=2; SMA_Dielectric_XMax=5.62; SMA_Dielectric_XMin=0; SMA_Dielectric_YCenter=0; SMA_Dielectric_ZCenter=0; SMA_Footprint_Center_XMax=12.49; SMA_Footprint_Center_XMin=7.74; SMA_Footprint_Center_YMax=0.75; SMA_Footprint_Center_YMin=-0.75; SMA_OuterCond_InnerRadius=2; SMA_OuterCond_OuterRadius=3; SMA_OuterCond_XMax=6.89; SMA_XMax=6.67; SMA_XMin=0; SMA_YCenter=0; SMA_ZCenter=0; TopSupport_ZMax=1.02; TopSupport_ZMin=0; Via1_XCenter=7.5; Via1_YCenter=-4.25; Via2_XCenter=8.75; Via2_YCenter=-4.25; Via3_XCenter=10; Via3_YCenter=-4.25; Via4_XCenter=11.25; Via4_YCenter=-4.25; Via5_XCenter=7.5; Via5_YCenter=4.25; Via6_XCenter=8.75; Via6_YCenter=4.25; Via7_XCenter=10; Via7_YCenter=4.25; Via8_XCenter=11.25; Via8_YCenter=4.25; ViaInnerRadius=0; ViaOuterRadius=0.381}
! Header version: 2015
! Port assignment regex: !\s*Touchstone port\s*([0-9]+)\s*=\s*CST MWS port\s*([0-9]+)\s*\(\"(.*)\"\)(\s*mode\s*([0-9]+))?.*
! Touchstone port assignment:
! Touchstone port 1 = CST MWS port 1 ("")
! Touchstone port 2 = CST MWS port 2 ("")
# GHz S MA R 50
0                      0.0756333               0         0.933521               0         0.933521               0        0.0572619               0
0.0053                 0.0121873        -23.7499         0.999939       -0.159145         0.999939       -0.159145        0.0124572         153.569
0.0106                 0.0121645        -23.6434         0.999924       -0.306732         0.999924       -0.306732        0.0124804         153.174
0.0159                 0.0121189        -23.2886          0.99991       -0.457626          0.99991       -0.457626        0.0125303         152.543
0.0212                 0.0120681        -22.8689         0.999895       -0.609348         0.999895       -0.609348        0.0125873         151.855
0.0265                 0.0120156        -22.4205         0.999881         -0.7614         0.999881         -0.7614        0.0126476         151.148
0.0318                  0.011963        -21.9549         0.999867       -0.913618         0.999867       -0.913618        0.0127099         150.434
0.0371                 0.0119107        -21.4778         0.999853        -1.06593         0.999853        -1.06593        0.0127737         149.717
0.0424                 0.0118586        -20.9925         0.999838         -1.2183         0.999838         -1.2183        0.0128385         148.999
0.0477                 0.0118074        -20.4993         0.999824        -1.37071         0.999824        -1.37071        0.0129044         148.283
0.053                  0.0117571        -19.9989          0.99981        -1.52315          0.99981        -1.52315        0.0129714         147.571
0.0583                 0.0117079        -19.4919         0.999795        -1.67561         0.999795        -1.67561        0.0130394         146.862
0.0636                 0.0116596        -18.9791         0.999781        -1.82809         0.999781        -1.82809        0.0131082         146.156
0.0689                 0.0116123        -18.4608         0.999766        -1.98057         0.999766        -1.98057        0.0131778         145.454
0.0742                  0.011566        -17.9371         0.999751        -2.13307         0.999751        -2.13307        0.0132481         144.756
0.0795                 0.0115208        -17.4082         0.999737        -2.28557         0.999737        -2.28557        0.0133192         144.062
0.0848                 0.0114767        -16.8742         0.999722        -2.43808         0.999722        -2.43808         0.013391         143.372
0.0901                 0.0114337        -16.3352         0.999707        -2.59059         0.999707        -2.59059        0.0134636         142.686
0.0954                 0.0113919        -15.7915         0.999693        -2.74311         0.999693        -2.74311        0.0135368         142.005
0.1007                 0.0113512        -15.2431         0.999678        -2.89563         0.999678        -2.89563        0.0136107         141.327
0.106                  0.0113117        -14.6901         0.999663        -3.04816         0.999663        -3.04816        0.0136853         140.654
0.1113                 0.0112734        -14.1327         0.999648        -3.20069         0.999648        -3.20069        0.0137605         139.985
0.1166                 0.0112363        -13.5708         0.999633        -3.35322         0.999633        -3.35322        0.0138364          139.32
0.1219                 0.0112004        -13.0047         0.999618        -3.50575         0.999618        -3.50575        0.0139129         138.659
0.1272                 0.0111658        -12.4344         0.999603        -3.65828         0.999603        -3.65828          0.01399         138.003
0.1325                 0.0111325        -11.8601         0.999588        -3.81082         0.999588        -3.81082        0.0140677          137.35
0.1378                 0.0111004        -11.2819         0.999573        -3.96336         0.999573        -3.96336         0.014146         136.702
0.1431                 0.0110696        -10.6998         0.999558        -4.11589         0.999558        -4.11589        0.0142249         136.057
0.1484                 0.0110401         -10.114         0.999543        -4.26843         0.999543        -4.26843        0.0143043         135.417
0.1537                 0.0110119        -9.52471         0.999527        -4.42097         0.999527        -4.42097        0.0143843         134.781
0.159                   0.010985        -8.93192         0.999512        -4.57351         0.999512        -4.57351        0.0144649         134.148
0.1643                 0.0109595        -8.33581         0.999497        -4.72606         0.999497        -4.72606         0.014546         133.519
0.1696                 0.0109353        -7.73651         0.999481         -4.8786         0.999481         -4.8786        0.0146277         132.895
0.1749                 0.0109124        -7.13417         0.999466        -5.03114         0.999466        -5.03114        0.0147098         132.274
0.1802                  0.010891        -6.52893          0.99945        -5.18369          0.99945        -5.18369        0.0147925         131.657
0.1855                 0.0108709        -5.92093         0.999435        -5.33623         0.999435        -5.33623        0.0148757         131.043
0.1908                 0.0108522        -5.31031         0.999419        -5.48878         0.999419        -5.48878        0.0149594         130.433
0.1961                 0.0108349        -4.69724         0.999404        -5.64133         0.999404        -5.64133        0.0150436         129.827
0.2014                  0.010819        -4.08187         0.999388        -5.79387         0.999388        -5.79387        0.0151283         129.225
0.2067                 0.0108045        -3.46435         0.999372        -5.94642         0.999372        -5.94642        0.0152134         128.626
0.212                  0.0107915        -2.84486         0.999356        -6.09897         0.999356        -6.09897         0.015299         128.031
0.2173                 0.0107799        -2.22355         0.999341        -6.25152         0.999341        -6.25152        0.0153851         127.439
0.2226                 0.0107697         -1.6006         0.999325        -6.40407         0.999325        -6.40407        0.0154717          126.85
0.2279                  0.010761       -0.976173         0.999309        -6.55662         0.999309        -6.55662        0.0155586         126.265
0.2332                 0.0107537       -0.350443         0.999293        -6.70917         0.999293        -6.70917        0.0156461         125.684
0.2385                 0.0107478        0.276415         0.999277        -6.86172         0.999277        -6.86172        0.0157339         125.106
0.2438                 0.0107435        0.904217         0.999261        -7.01427         0.999261        -7.01427        0.0158222         124.531
0.2491                 0.0107406         1.53279         0.999245        -7.16683         0.999245        -7.16683        0.0159109         123.959
0.2544                 0.0107391         2.16196         0.999229        -7.31938         0.999229        -7.31938        0.0160001          123.39
0.2597                 0.0107392         2.79155         0.999212        -7.47193         0.999212        -7.47193        0.0160896         122.825
0.265                  0.0107407         3.42137         0.999196        -7.62448         0.999196        -7.62448        0.0161795         122.263
0.2703                 0.0107437         4.05122          0.99918        -7.77704          0.99918        -7.77704        0.0162699         121.704
0.2756                 0.0107481         4.68095         0.999164        -7.92959         0.999164        -7.92959        0.0163606         121.148
0.2809                  0.010754         5.31037         0.999147        -8.08214         0.999147        -8.08214        0.0164517         120.594
0.2862                 0.0107615          5.9393         0.999131         -8.2347         0.999131         -8.2347        0.0165432         120.044
0.2915                 0.0107703         6.56755         0.999114        -8.38725         0.999114        -8.38725        0.0166351         119.497
0.2968                 0.0107807         7.19494         0.999098        -8.53981         0.999098        -8.53981        0.0167273         118.953
0.3021                 0.0107926         7.82129         0.999081        -8.69237         0.999081        -8.69237        0.0168199         118.412
0.3074                 0.0108059         8.44645         0.999065        -8.84492         0.999065        -8.84492        0.0169129         117.873
0.3127                 0.0108207         9.07023         0.999048        -8.99748         0.999048        -8.99748        0.0170062         117.337
0.318                  0.0108369         9.69245         0.999031        -9.15003         0.999031        -9.15003        0.0170999         116.804
0.3233                 0.0108546         10.3129         0.999014        -9.30259         0.999014        -9.30259         0.017194         116.274
0.3286                 0.0108738         10.9315         0.998998        -9.45515         0.998998        -9.45515        0.0172883         115.747
0.3339                 0.0108944         11.5481         0.998981        -9.60771         0.998981        -9.60771         0.017383         115.222
0.3392                 0.0109165         12.1624         0.998964        -9.76026         0.998964        -9.76026        0.0174781         114.699
0.3445                   0.01094         12.7744         0.998947        -9.91282         0.998947        -9.91282        0.0175734          114.18
0.3498                  0.010965         13.3838          0.99893        -10.0654          0.99893        -10.0654        0.0176691         113.662
0.3551                 0.0109914         13.9905         0.998913        -10.2179         0.998913        -10.2179        0.0177652         113.148
0.3604                 0.0110192         14.5944         0.998896        -10.3705         0.998896        -10.3705        0.0178615         112.636
0.3657                 0.0110484         15.1954         0.998879        -10.5231         0.998879        -10.5231        0.0179581         112.126
0.371                   0.011079         15.7932         0.998861        -10.6756         0.998861        -10.6756        0.0180551         111.619
0.3763                  0.011111         16.3878         0.998844        -10.8282         0.998844        -10.8282        0.0181524         111.114
0.3816                 0.0111444          16.979         0.998827        -10.9807         0.998827        -10.9807        0.0182499         110.611
0.3869                 0.0111792         17.5667          0.99881        -11.1333          0.99881        -11.1333        0.0183478         110.111
0.3922                 0.0112154         18.1508         0.998792        -11.2859         0.998792        -11.2859         0.018446         109.613
0.3975                 0.0112529         18.7311         0.998775        -11.4384         0.998775        -11.4384        0.0185444         109.117
0.4028                 0.0112918         19.3076         0.998757         -11.591         0.998757         -11.591        0.0186432         108.624
0.4081                  0.011332         19.8802          0.99874        -11.7435          0.99874        -11.7435        0.0187422         108.132
0.4134                 0.0113735         20.4487         0.998722        -11.8961         0.998722        -11.8961        0.0188415         107.643
0.4187                 0.0114164          21.013         0.998705        -12.0487         0.998705        -12.0487        0.0189411         107.157
0.424                  0.0114606         21.5731         0.998687        -12.2012         0.998687        -12.2012         0.019041         106.672
0.4293                  0.011506         22.1288         0.998669        -12.3538         0.998669        -12.3538        0.0191412         106.189
0.4346                 0.0115528         22.6802         0.998651        -12.5064         0.998651        -12.5064        0.0192416         105.708
0.4399                 0.0116008          23.227         0.998634        -12.6589         0.998634        -12.6589        0.0193423          105.23
0.4452                   0.01165         23.7693         0.998616        -12.8115         0.998616        -12.8115        0.0194433         104.753
0.4505                 0.0117005          24.307         0.998598        -12.9641         0.998598        -12.9641        0.0195445         104.279
0.4558                 0.0117523         24.8399          0.99858        -13.1166          0.99858        -13.1166         0.019646         103.806
0.4611                 0.0118053         25.3681         0.998562        -13.2692         0.998562        -13.2692        0.0197477         103.335
0.4664                 0.0118594         25.8915         0.998544        -13.4218         0.998544        -13.4218        0.0198497         102.867
0.4717                 0.0119148         26.4101         0.998526        -13.5743         0.998526        -13.5743         0.019952           102.4
0.477                  0.0119713         26.9237         0.998508        -13.7269         0.998508        -13.7269        0.0200545         101.935
0.4823                  0.012029         27.4324          0.99849        -13.8795          0.99849        -13.8795        0.0201573         101.471
0.4876                 0.0120879         27.9361         0.998471         -14.032         0.998471         -14.032        0.0202603          101.01
0.4929                 0.0121479         28.4349         0.998453        -14.1846         0.998453        -14.1846        0.0203636         100.551
0.4982                 0.0122091         28.9286         0.998435        -14.3372         0.998435        -14.3372        0.0204671         100.093
0.5035                 0.0122713         29.4172         0.998416        -14.4897         0.998416        -14.4897        0.0205708         99.6366
0.5088                 0.0123347         29.9007         0.998398        -14.6423         0.998398        -14.6423        0.0206748         99.1823
0.5141                 0.0123991         30.3792         0.998379        -14.7949         0.998379        -14.7949         0.020779         98.7297
0.5194                 0.0124646         30.8525         0.998361        -14.9474         0.998361        -14.9474        0.0208835         98.2788
0.5247                 0.0125312         31.3208         0.998342           -15.1         0.998342           -15.1        0.0209882         97.8295
0.53                   0.0125988         31.7839         0.998324        -15.2526         0.998324        -15.2526        0.0210931         97.3819
0.5353                 0.0126675         32.2418         0.998305        -15.4051         0.998305        -15.4051        0.0211983         96.9359
0.5406                 0.0127372         32.6947         0.998286        -15.5577         0.998286        -15.5577        0.0213037         96.4915
0.5459                 0.0128078         33.1424         0.998267        -15.7103         0.998267        -15.7103        0.0214093         96.0486
0.5512                 0.0128795          33.585         0.998249        -15.8628         0.998249        -15.8628        0.0215151         95.6074
0.5565                 0.0129522         34.0225          0.99823        -16.0154          0.99823        -16.0154        0.0216212         95.1676
0.5618                 0.0130258         34.4549         0.998211         -16.168         0.998211         -16.168        0.0217275         94.7294
0.5671                 0.0131004         34.8822         0.998192        -16.3206         0.998192        -16.3206         0.021834         94.2928
0.5724                  0.013176         35.3045         0.998173        -16.4731         0.998173        -16.4731        0.0219408         93.8576
0.5777                 0.0132524         35.7217         0.998154        -16.6257         0.998154        -16.6257        0.0220477         93.4238
0.583                  0.0133298         36.1339         0.998135        -16.7783         0.998135        -16.7783        0.0221549         92.9915
0.5883                 0.0134081         36.5411         0.998116        -16.9308         0.998116        -16.9308        0.0222623         92.5607
0.5936                 0.0134873         36.9433         0.998096        -17.0834         0.998096        -17.0834        0.0223699         92.1313
0.5989                 0.0135674         37.3405         0.998077         -17.236         0.998077         -17.236        0.0224778         91.7033
0.6042                 0.0136483         37.7329         0.998058        -17.3886         0.998058        -17.3886        0.0225858         91.2766
0.6095                 0.0137301         38.1203         0.998038        -17.5411         0.998038        -17.5411        0.0226941         90.8513
0.6148                 0.0138128         38.5029         0.998019        -17.6937         0.998019        -17.6937        0.0228025         90.4274
0.6201                 0.0138963         38.8806         0.997999        -17.8463         0.997999        -17.8463        0.0229112         90.0048
0.6254                 0.0139806         39.2536          0.99798        -17.9989          0.99798        -17.9989        0.0230201         89.5836
0.6307                 0.0140658         39.6218          0.99796        -18.1514          0.99796        -18.1514        0.0231292         89.1636
0.636                  0.0141517         39.9852         0.997941         -18.304         0.997941         -18.304        0.0232385         88.7449
0.6413                 0.0142384          40.344         0.997921        -18.4566         0.997921        -18.4566         0.023348         88.3275
0.6466                  0.014326         40.6981         0.997901        -18.6092         0.997901        -18.6092        0.0234577         87.9114
0.6519                 0.0144142         41.0477         0.997882        -18.7617         0.997882        -18.7617        0.0235676         87.4965
0.6572                 0.0145033         41.3926         0.997862        -18.9143         0.997862        -18.9143        0.0236778         87.0829
0.6625                 0.0145931         41.7331         0.997842        -19.0669         0.997842        -19.0669        0.0237881         86.6704
0.6678                 0.0146836          42.069         0.997822        -19.2195         0.997822        -19.2195        0.0238986         86.2592
0.6731                 0.0147749         42.4005         0.997802        -19.3721         0.997802        -19.3721        0.0240094         85.8492
0.6784                 0.0148669         42.7276         0.997782        -19.5246         0.997782        -19.5246        0.0241203         85.4403
0.6837                 0.0149596         43.0503         0.997762        -19.6772         0.997762        -19.6772        0.0242314         85.0326
0.689                   0.015053         43.3688         0.997742        -19.8298         0.997742        -19.8298        0.0243427          84.626
0.6943                 0.0151471         43.6829         0.997722        -19.9824         0.997722        -19.9824        0.0244543         84.2206
0.6996                 0.0152418         43.9928         0.997702         -20.135         0.997702         -20.135         0.024566         83.8163
0.7049                 0.0153373         44.2986         0.997681        -20.2875         0.997681        -20.2875        0.0246779         83.4132
0.7102                 0.0154334         44.6002         0.997661        -20.4401         0.997661        -20.4401          0.02479         83.0111
0.7155                 0.0155302         44.8977         0.997641        -20.5927         0.997641        -20.5927        0.0249023         82.6101
0.7208                 0.0156276         45.1911          0.99762        -20.7453          0.99762        -20.7453        0.0250149         82.2102
0.7261                 0.0157257         45.4806           0.9976        -20.8979           0.9976        -20.8979        0.0251276         81.8114
0.7314                 0.0158243         45.7661         0.997579        -21.0504         0.997579        -21.0504        0.0252405         81.4136
0.7367                 0.0159237         46.0477         0.997559         -21.203         0.997559         -21.203        0.0253535         81.0168
0.742                  0.0160236         46.3254         0.997538        -21.3556         0.997538        -21.3556        0.0254668         80.6211
0.7473                 0.0161241         46.5992         0.997518        -21.5082         0.997518        -21.5082        0.0255803         80.2264
0.7526                 0.0162253         46.8693         0.997497        -21.6608         0.997497        -21.6608         0.025694         79.8328
0.7579                  0.016327         47.1357         0.997476        -21.8133         0.997476        -21.8133        0.0258078         79.4401
0.7632                 0.0164293         47.3984         0.997455        -21.9659         0.997455        -21.9659        0.0259219         79.0484
0.7685                 0.0165322         47.6574         0.997434        -22.1185         0.997434        -22.1185        0.0260361         78.6577
0.7738                 0.0166357         47.9128         0.997413        -22.2711         0.997413        -22.2711        0.0261506          78.268
0.7791                 0.0167397         48.1647         0.997393        -22.4237         0.997393        -22.4237        0.0262652         77.8792
0.7844                 0.0168443          48.413         0.997372        -22.5763         0.997372        -22.5763          0.02638         77.4914
0.7897                 0.0169494         48.6579          0.99735        -22.7289          0.99735        -22.7289         0.026495         77.1045
0.795                  0.0170551         48.8993         0.997329        -22.8814         0.997329        -22.8814        0.0266102         76.7185
0.8003                 0.0171613         49.1374         0.997308         -23.034         0.997308         -23.034        0.0267256         76.3335
0.8056                 0.0172681          49.372         0.997287        -23.1866         0.997287        -23.1866        0.0268411         75.9494
0.8109                 0.0173754         49.6035         0.997266        -23.3392         0.997266        -23.3392        0.0269569         75.5661
0.8162                 0.0174831         49.8316         0.997244        -23.4918         0.997244        -23.4918        0.0270728         75.1838
0.8215                 0.0175914         50.0565         0.997223        -23.6444         0.997223        -23.6444        0.0271889         74.8024
0.8268                 0.0177003         50.2782         0.997202         -23.797         0.997202         -23.797        0.0273053         74.4218
0.8321                 0.0178096         50.4968          0.99718        -23.9495          0.99718        -23.9495        0.0274218         74.0421
0.8374                 0.0179194         50.7123         0.997159        -24.1021         0.997159        -24.1021        0.0275384         73.6633
0.8427                 0.0180297         50.9247         0.997137        -24.2547         0.997137        -24.2547        0.0276553         73.2853
0.848                  0.0181405         51.1341         0.997115        -24.4073         0.997115        -24.4073        0.0277724         72.9082
0.8533                 0.0182517         51.3405         0.997094        -24.5599         0.997094        -24.5599        0.0278896         72.5319
0.8586                 0.0183635          51.544         0.997072        -24.7125         0.997072        -24.7125         0.028007         72.1564
0.8639                 0.0184757         51.7445          0.99705        -24.8651          0.99705        -24.8651        0.0281247         71.7818
0.8692                 0.0185883         51.9422         0.997028        -25.0177         0.997028        -25.0177        0.0282425         71.4079
0.8745                 0.0187014         52.1371         0.997006        -25.1703         0.997006        -25.1703        0.0283604         71.0349
0.8798                  0.018815         52.3291         0.996984        -25.3229         0.996984        -25.3229        0.0284786         70.6626
0.8851                 0.0189291         52.5184         0.996962        -25.4754         0.996962        -25.4754         0.028597         70.2912
0.8904                 0.0190435          52.705          0.99694         -25.628          0.99694         -25.628        0.0287155         69.9205
0.8957                 0.0191584         52.8889         0.996918        -25.7806         0.996918        -25.7806        0.0288342         69.5506
0.901                  0.0192738         53.0701         0.996896        -25.9332         0.996896        -25.9332        0.0289531         69.1815
0.9063                 0.0193896         53.2487         0.996874        -26.0858         0.996874        -26.0858        0.0290722         68.8131
0.9116                 0.0195058         53.4247         0.996852        -26.2384         0.996852        -26.2384        0.0291915         68.4455
0.9169                 0.0196224         53.5982         0.996829         -26.391         0.996829         -26.391        0.0293109         68.0787
0.9222                 0.0197394         53.7692         0.996807        -26.5436         0.996807        -26.5436        0.0294306         67.7125
0.9275                 0.0198569         53.9376         0.996785        -26.6962         0.996785        -26.6962        0.0295504         67.3472
0.9328                 0.0199748         54.1036         0.996762        -26.8488         0.996762        -26.8488        0.0296704         66.9825
0.9381                 0.0200931         54.2672          0.99674        -27.0014          0.99674        -27.0014        0.0297906         66.6186
0.9434                 0.0202117         54.4284         0.996717         -27.154         0.996717         -27.154        0.0299109         66.2554
0.9487                 0.0203308         54.5872         0.996695        -27.3066         0.996695        -27.3066        0.0300315         65.8929
0.954                  0.0204503         54.7437         0.996672        -27.4592         0.996672        -27.4592        0.0301522          65.531
0.9593                 0.0205702         54.8979         0.996649        -27.6118         0.996649        -27.6118        0.0302731         65.1699
0.9646                 0.0206904         55.0498         0.996626        -27.7643         0.996626        -27.7643        0.0303942         64.8095
0.9699                 0.0208111         55.1995         0.996604        -27.9169         0.996604        -27.9169        0.0305155         64.4498
0.9752                 0.0209321          55.347         0.996581        -28.0695         0.996581        -28.0695         0.030637         64.0908
0.9805                 0.0210535         55.4923         0.996558        -28.2221         0.996558        -28.2221        0.0307586         63.7324
0.9858                 0.0211753         55.6354         0.996535        -28.3747         0.996535        -28.3747        0.0308804         63.3747
0.9911                 0.0212974         55.7764         0.996512        -28.5273         0.996512        -28.5273        0.0310025         63.0176
0.9964                   0.02142         55.9153         0.996489        -28.6799         0.996489        -28.6799        0.0311246         62.6613