! TOUCHSTONE file generated by CST MICROWAVE STUDIO
! Date and time: Tue Jan  7 09:43:16 2020
! Project name: OSHPark_FR408_Transition2.cst
! Parameters = {GND_Plane_XMax=12; Cap_Disk_XOffset=0; Cap_Disk2_YCenter=-1.03; Cap_Disk_YCenter=1.03; Cap_Disk_XCenter=7.39; Cap_Disk_Radius=0.5; BottomSupport_Left_YMax=4.76; BottomSupport_Left_YMin=3.74; BottomSupport_Right_YMax=-3.74; BottomSupport_Right_YMin=-4.76; BottomSupport_XMax=11.64; BottomSupport_XMin=6.89; BottomSupport_ZMax=-1.64084; BottomSupport_ZMin=-3.58; Cu1_Thickness=0.03556; Cu2_Thickness=0.01778; Fr408Core_Thickness=1.1938; GND_Plane_Offset=2.825; PCBThickness=1.6256; Prepreg1_Zmin=-0.20574; Prepreg_Thickness=0.17018; RFTraceYMax=0.17145; RFTrace_XMax=15; RFTrace_XMin=11.46; RFTrace_YMin=-0.17145; SMA_CenterCond_Inner_XMax=11.64; SMA_CenterCond_Radius=0.6; SMA_Dielectric_InnerRadius=0.6; SMA_Dielectric_OuterRadius=2; SMA_Dielectric_XMax=5.62; SMA_Dielectric_XMin=0; SMA_Dielectric_YCenter=0; SMA_Dielectric_ZCenter=0; SMA_Footprint_Center_XMax=12.49; SMA_Footprint_Center_XMin=7.74; SMA_Footprint_Center_YMax=0.75; SMA_Footprint_Center_YMin=-0.75; SMA_OuterCond_InnerRadius=2; SMA_OuterCond_OuterRadius=3; SMA_OuterCond_XMax=6.89; SMA_XMax=6.67; SMA_XMin=0; SMA_YCenter=0; SMA_ZCenter=0; TopSupport_ZMax=1.02; TopSupport_ZMin=0; Via1_XCenter=7.5; Via1_YCenter=-4.25; Via2_XCenter=8.75; Via2_YCenter=-4.25; Via3_XCenter=10; Via3_YCenter=-4.25; Via4_XCenter=11.25; Via4_YCenter=-4.25; Via5_XCenter=7.5; Via5_YCenter=4.25; Via6_XCenter=8.75; Via6_YCenter=4.25; Via7_XCenter=10; Via7_YCenter=4.25; Via8_XCenter=11.25; Via8_YCenter=4.25; ViaInnerRadius=0; ViaOuterRadius=0.381}
! Header version: 2015
! Port assignment regex: !\s*Touchstone port\s*([0-9]+)\s*=\s*CST MWS port\s*([0-9]+)\s*\(\"(.*)\"\)(\s*mode\s*([0-9]+))?.*
! Touchstone port assignment:
! Touchstone port 1 = CST MWS port 1 ("")
! Touchstone port 2 = CST MWS port 2 ("")
# GHz S MA R 50
0                      0.0922616               0         0.912789               0         0.912789               0        0.0821586               0
0.0053                0.00853272        -35.1543         0.999975        -0.16002         0.999975        -0.16002       0.00876158         142.818
0.0106                0.00857841        -35.7339          0.99996       -0.306586          0.99996       -0.306586        0.0087141          143.09
0.0159                0.00858886        -35.9945         0.999944       -0.456595         0.999944       -0.456595       0.00870289         143.041
0.0212                0.00859058        -36.1742         0.999929       -0.607464         0.999929       -0.607464        0.0087008         142.913
0.0265                0.00858888        -36.3214         0.999914       -0.758678         0.999914       -0.758678       0.00870241         142.753
0.0318                 0.0085854        -36.4531         0.999899       -0.910063         0.999899       -0.910063       0.00870578         142.576
0.0371                0.00858092        -36.5742         0.999884        -1.06155         0.999884        -1.06155       0.00871016         142.392
0.0424                0.00857592        -36.6864         0.999869        -1.21309         0.999869        -1.21309       0.00871527         142.205
0.0477                 0.0085704        -36.7952         0.999854        -1.36468         0.999854        -1.36468       0.00872069         142.013
0.053                 0.00856451        -36.9017         0.999839        -1.51629         0.999839        -1.51629       0.00872631         141.818
0.0583                0.00855836        -37.0072         0.999824        -1.66793         0.999824        -1.66793       0.00873205          141.62
0.0636                0.00855209        -37.1108         0.999809        -1.81958         0.999809        -1.81958       0.00873797         141.421
0.0689                0.00854573        -37.2129         0.999794        -1.97124         0.999794        -1.97124       0.00874403         141.221
0.0742                 0.0085393        -37.3139         0.999778        -2.12292         0.999778        -2.12292       0.00875018          141.02
0.0795                 0.0085328        -37.4141         0.999763         -2.2746         0.999763         -2.2746       0.00875639         140.818
0.0848                0.00852625        -37.5136         0.999748        -2.42629         0.999748        -2.42629       0.00876265         140.616
0.0901                0.00851967        -37.6125         0.999733        -2.57798         0.999733        -2.57798       0.00876894         140.413
0.0954                0.00851304        -37.7108         0.999718        -2.72967         0.999718        -2.72967       0.00877526         140.209
0.1007                0.00850639        -37.8086         0.999702        -2.88137         0.999702        -2.88137        0.0087816         140.005
0.106                 0.00849972         -37.906         0.999687        -3.03307         0.999687        -3.03307       0.00878796         139.801
0.1113                0.00849305        -38.0029         0.999672        -3.18478         0.999672        -3.18478       0.00879433         139.596
0.1166                0.00848636        -38.0994         0.999656        -3.33649         0.999656        -3.33649       0.00880072         139.392
0.1219                0.00847966        -38.1956         0.999641         -3.4882         0.999641         -3.4882        0.0088071         139.187
0.1272                0.00847295        -38.2915         0.999626        -3.63991         0.999626        -3.63991       0.00881348         138.981
0.1325                0.00846624        -38.3871          0.99961        -3.79162          0.99961        -3.79162       0.00881987         138.776
0.1378                0.00845953        -38.4823         0.999595        -3.94333         0.999595        -3.94333       0.00882626          138.57
0.1431                0.00845283        -38.5772         0.999579        -4.09505         0.999579        -4.09505       0.00883266         138.364
0.1484                0.00844611        -38.6718         0.999564        -4.24677         0.999564        -4.24677       0.00883904         138.158
0.1537                 0.0084394        -38.7662         0.999548        -4.39848         0.999548        -4.39848       0.00884542         137.952
0.159                 0.00843268        -38.8603         0.999533         -4.5502         0.999533         -4.5502       0.00885179         137.745
0.1643                0.00842599         -38.954         0.999517        -4.70192         0.999517        -4.70192       0.00885817         137.539
0.1696                0.00841929        -39.0475         0.999501        -4.85364         0.999501        -4.85364       0.00886454         137.332
0.1749                0.00841259        -39.1408         0.999486        -5.00536         0.999486        -5.00536        0.0088709         137.125
0.1802                0.00840589        -39.2338          0.99947        -5.15708          0.99947        -5.15708       0.00887726         136.918
0.1855                0.00839919        -39.3266         0.999455         -5.3088         0.999455         -5.3088        0.0088836         136.711
0.1908                0.00839251         -39.419         0.999439        -5.46052         0.999439        -5.46052       0.00888995         136.503
0.1961                0.00838584        -39.5112         0.999423        -5.61224         0.999423        -5.61224       0.00889629         136.296
0.2014                0.00837916        -39.6032         0.999407        -5.76396         0.999407        -5.76396       0.00890262         136.088
0.2067                0.00837249        -39.6949         0.999392        -5.91569         0.999392        -5.91569       0.00890894         135.881
0.212                 0.00836582        -39.7864         0.999376        -6.06741         0.999376        -6.06741       0.00891525         135.673
0.2173                0.00835917        -39.8776          0.99936        -6.21913          0.99936        -6.21913       0.00892157         135.465
0.2226                0.00835252        -39.9685         0.999344        -6.37086         0.999344        -6.37086       0.00892787         135.257
0.2279                0.00834587        -40.0591         0.999328        -6.52258         0.999328        -6.52258       0.00893416         135.048
0.2332                0.00833923        -40.1496         0.999313        -6.67431         0.999313        -6.67431       0.00894045          134.84
0.2385                0.00833259        -40.2397         0.999297        -6.82603         0.999297        -6.82603       0.00894672         134.632
0.2438                0.00832597        -40.3296         0.999281        -6.97775         0.999281        -6.97775         0.008953         134.423
0.2491                0.00831935        -40.4192         0.999265        -7.12948         0.999265        -7.12948       0.00895928         134.214
0.2544                0.00831273        -40.5085         0.999249         -7.2812         0.999249         -7.2812       0.00896553         134.005
0.2597                0.00830611        -40.5976         0.999233        -7.43293         0.999233        -7.43293       0.00897178         133.796
0.265                  0.0082995        -40.6864         0.999217        -7.58466         0.999217        -7.58466       0.00897803         133.587
0.2703                0.00829291        -40.7749         0.999201        -7.73638         0.999201        -7.73638       0.00898427         133.378
0.2756                0.00828632        -40.8632         0.999185        -7.88811         0.999185        -7.88811       0.00899051         133.168
0.2809                0.00827973        -40.9512         0.999169        -8.03983         0.999169        -8.03983       0.00899674         132.959
0.2862                0.00827315        -41.0389         0.999153        -8.19156         0.999153        -8.19156       0.00900296         132.749
0.2915                0.00826657        -41.1263         0.999136        -8.34328         0.999136        -8.34328       0.00900917         132.539
0.2968                0.00826001        -41.2134          0.99912        -8.49501          0.99912        -8.49501       0.00901539         132.329
0.3021                0.00825345        -41.3002         0.999104        -8.64674         0.999104        -8.64674        0.0090216         132.119
0.3074                0.00824688        -41.3868         0.999088        -8.79846         0.999088        -8.79846        0.0090278         131.909
0.3127                0.00824033        -41.4731         0.999072        -8.95019         0.999072        -8.95019       0.00903399         131.699
0.318                 0.00823378        -41.5591         0.999055        -9.10192         0.999055        -9.10192       0.00904018         131.488
0.3233                0.00822724        -41.6447         0.999039        -9.25364         0.999039        -9.25364       0.00904638         131.278
0.3286                0.00822071          -41.73         0.999023        -9.40537         0.999023        -9.40537       0.00905257         131.067
0.3339                0.00821417        -41.8151         0.999007         -9.5571         0.999007         -9.5571       0.00905874         130.856
0.3392                0.00820764        -41.8999          0.99899        -9.70882          0.99899        -9.70882       0.00906491         130.645
0.3445                0.00820112        -41.9844         0.998974        -9.86055         0.998974        -9.86055       0.00907108         130.434
0.3498                0.00819461        -42.0685         0.998957        -10.0123         0.998957        -10.0123       0.00907726         130.223
0.3551                 0.0081881        -42.1523         0.998941         -10.164         0.998941         -10.164       0.00908343         130.011
0.3604                0.00818159        -42.2359         0.998925        -10.3157         0.998925        -10.3157       0.00908959           129.8
0.3657                0.00817509        -42.3191         0.998908        -10.4675         0.998908        -10.4675       0.00909574         129.588
0.371                 0.00816858         -42.402         0.998892        -10.6192         0.998892        -10.6192       0.00910189         129.376
0.3763                 0.0081621        -42.4845         0.998875        -10.7709         0.998875        -10.7709       0.00910806         129.164
0.3816                0.00815562        -42.5667         0.998859        -10.9226         0.998859        -10.9226       0.00911421         128.952
0.3869                0.00814913        -42.6486         0.998842        -11.0744         0.998842        -11.0744       0.00912036          128.74
0.3922                0.00814265        -42.7302         0.998825        -11.2261         0.998825        -11.2261       0.00912651         128.527
0.3975                0.00813617        -42.8114         0.998809        -11.3778         0.998809        -11.3778       0.00913265         128.315
0.4028                0.00812971        -42.8923         0.998792        -11.5296         0.998792        -11.5296       0.00913881         128.102
0.4081                0.00812325        -42.9728         0.998776        -11.6813         0.998776        -11.6813       0.00914496         127.889
0.4134                0.00811678         -43.053         0.998759         -11.833         0.998759         -11.833        0.0091511         127.676
0.4187                0.00811032        -43.1329         0.998742        -11.9847         0.998742        -11.9847       0.00915725         127.463
0.424                 0.00810387        -43.2124         0.998726        -12.1365         0.998726        -12.1365       0.00916339          127.25
0.4293                0.00809743        -43.2915         0.998709        -12.2882         0.998709        -12.2882       0.00916954         127.036
0.4346                0.00809099        -43.3703         0.998692        -12.4399         0.998692        -12.4399        0.0091757         126.823
0.4399                0.00808454        -43.4487         0.998675        -12.5916         0.998675        -12.5916       0.00918184         126.609
0.4452                 0.0080781        -43.5268         0.998658        -12.7434         0.998658        -12.7434       0.00918799         126.395
0.4505                0.00807167        -43.6045         0.998642        -12.8951         0.998642        -12.8951       0.00919413         126.181
0.4558                0.00806525        -43.6818         0.998625        -13.0468         0.998625        -13.0468       0.00920029         125.967
0.4611                0.00805883        -43.7587         0.998608        -13.1986         0.998608        -13.1986       0.00920645         125.752
0.4664                 0.0080524        -43.8353         0.998591        -13.3503         0.998591        -13.3503       0.00921261         125.538
0.4717                0.00804598        -43.9115         0.998574         -13.502         0.998574         -13.502       0.00921876         125.323
0.477                 0.00803957        -43.9873         0.998557        -13.6537         0.998557        -13.6537       0.00922492         125.108
0.4823                0.00803316        -44.0627          0.99854        -13.8055          0.99854        -13.8055       0.00923109         124.893
0.4876                0.00802676        -44.1377         0.998523        -13.9572         0.998523        -13.9572       0.00923727         124.678
0.4929                0.00802036        -44.2123         0.998506        -14.1089         0.998506        -14.1089       0.00924344         124.463
0.4982                0.00801396        -44.2866         0.998489        -14.2607         0.998489        -14.2607       0.00924961         124.247
0.5035                0.00800756        -44.3604         0.998472        -14.4124         0.998472        -14.4124       0.00925578         124.032
0.5088                0.00800117        -44.4338         0.998455        -14.5641         0.998455        -14.5641       0.00926198         123.816
0.5141                0.00799479        -44.5068         0.998438        -14.7158         0.998438        -14.7158       0.00926817           123.6
0.5194                0.00798841        -44.5794         0.998421        -14.8676         0.998421        -14.8676       0.00927437         123.384
0.5247                0.00798202        -44.6516         0.998403        -15.0193         0.998403        -15.0193       0.00928056         123.167
0.53                  0.00797564        -44.7234         0.998386         -15.171         0.998386         -15.171       0.00928676         122.951
0.5353                0.00796928        -44.7947         0.998369        -15.3228         0.998369        -15.3228       0.00929298         122.734
0.5406                0.00796291        -44.8656         0.998352        -15.4745         0.998352        -15.4745       0.00929921         122.517
0.5459                0.00795654        -44.9362         0.998335        -15.6262         0.998335        -15.6262       0.00930543           122.3
0.5512                0.00795017        -45.0063         0.998317        -15.7779         0.998317        -15.7779       0.00931165         122.083
0.5565                0.00794381        -45.0759           0.9983        -15.9297           0.9983        -15.9297       0.00931789         121.866
0.5618                0.00793746        -45.1451         0.998283        -16.0814         0.998283        -16.0814       0.00932414         121.648
0.5671                0.00793112        -45.2138         0.998265        -16.2331         0.998265        -16.2331        0.0093304         121.431
0.5724                0.00792477        -45.2821         0.998248        -16.3849         0.998248        -16.3849       0.00933666         121.213
0.5777                0.00791842          -45.35         0.998231        -16.5366         0.998231        -16.5366       0.00934293         120.995
0.583                 0.00791207        -45.4174         0.998213        -16.6883         0.998213        -16.6883       0.00934921         120.777
0.5883                0.00790574        -45.4843         0.998196        -16.8401         0.998196        -16.8401        0.0093555         120.558
0.5936                0.00789941        -45.5508         0.998178        -16.9918         0.998178        -16.9918       0.00936181          120.34
0.5989                0.00789308        -45.6168         0.998161        -17.1435         0.998161        -17.1435       0.00936811         120.121
0.6042                0.00788675        -45.6824         0.998143        -17.2952         0.998143        -17.2952       0.00937443         119.902
0.6095                0.00788043        -45.7475         0.998126         -17.447         0.998126         -17.447       0.00938075         119.683
0.6148                0.00787411         -45.812         0.998108        -17.5987         0.998108        -17.5987        0.0093871         119.464
0.6201                 0.0078678        -45.8761          0.99809        -17.7504          0.99809        -17.7504       0.00939345         119.245
0.6254                0.00786149        -45.9398         0.998073        -17.9022         0.998073        -17.9022       0.00939981         119.025
0.6307                0.00785518         -46.003         0.998055        -18.0539         0.998055        -18.0539       0.00940618         118.806
0.636                 0.00784888        -46.0657         0.998038        -18.2056         0.998038        -18.2056       0.00941256         118.586
0.6413                0.00784259        -46.1278          0.99802        -18.3573          0.99802        -18.3573       0.00941896         118.366
0.6466                 0.0078363        -46.1894         0.998002        -18.5091         0.998002        -18.5091       0.00942538         118.145
0.6519                0.00783001        -46.2506         0.997984        -18.6608         0.997984        -18.6608        0.0094318         117.925
0.6572                0.00782372        -46.3113         0.997967        -18.8125         0.997967        -18.8125       0.00943823         117.704
0.6625                0.00781743        -46.3715         0.997949        -18.9643         0.997949        -18.9643       0.00944467         117.483
0.6678                0.00781116        -46.4311         0.997931         -19.116         0.997931         -19.116       0.00945114         117.262
0.6731                0.00780489        -46.4902         0.997913        -19.2677         0.997913        -19.2677       0.00945762         117.041
0.6784                0.00779862        -46.5489         0.997896        -19.4194         0.997896        -19.4194       0.00946411          116.82
0.6837                0.00779236         -46.607         0.997878        -19.5712         0.997878        -19.5712       0.00947061         116.598
0.689                  0.0077861        -46.6646          0.99786        -19.7229          0.99786        -19.7229       0.00947713         116.377
0.6943                0.00777985        -46.7216         0.997842        -19.8746         0.997842        -19.8746       0.00948367         116.155
0.6996                0.00777361         -46.778         0.997824        -20.0264         0.997824        -20.0264       0.00949023         115.933
0.7049                0.00776737         -46.834         0.997806        -20.1781         0.997806        -20.1781        0.0094968         115.711
0.7102                0.00776113        -46.8894         0.997788        -20.3298         0.997788        -20.3298       0.00950338         115.488
0.7155                0.00775489        -46.9443          0.99777        -20.4816          0.99777        -20.4816       0.00950998         115.265
0.7208                0.00774867        -46.9986         0.997752        -20.6333         0.997752        -20.6333       0.00951661         115.043
0.7261                0.00774246        -47.0523         0.997734         -20.785         0.997734         -20.785       0.00952325          114.82
0.7314                0.00773624        -47.1056         0.997716        -20.9367         0.997716        -20.9367        0.0095299         114.597
0.7367                0.00773003        -47.1582         0.997698        -21.0885         0.997698        -21.0885       0.00953657         114.373
0.742                 0.00772382        -47.2103          0.99768        -21.2402          0.99768        -21.2402       0.00954326          114.15
0.7473                0.00771763        -47.2618         0.997661        -21.3919         0.997661        -21.3919       0.00954997         113.926
0.7526                0.00771145        -47.3127         0.997643        -21.5437         0.997643        -21.5437       0.00955671         113.702
0.7579                0.00770526        -47.3631         0.997625        -21.6954         0.997625        -21.6954       0.00956346         113.478
0.7632                0.00769909        -47.4128         0.997607        -21.8471         0.997607        -21.8471       0.00957022         113.254
0.7685                0.00769291        -47.4621         0.997589        -21.9988         0.997589        -21.9988       0.00957701         113.029
0.7738                0.00768676        -47.5106          0.99757        -22.1506          0.99757        -22.1506       0.00958382         112.805
0.7791                0.00768061        -47.5586         0.997552        -22.3023         0.997552        -22.3023       0.00959066          112.58
0.7844                0.00767446         -47.606         0.997534         -22.454         0.997534         -22.454       0.00959751         112.355
0.7897                0.00766832        -47.6528         0.997516        -22.6058         0.997516        -22.6058       0.00960438         112.129
0.795                 0.00766218         -47.699         0.997497        -22.7575         0.997497        -22.7575       0.00961128         111.904
0.8003                0.00765606        -47.7446         0.997479        -22.9092         0.997479        -22.9092        0.0096182         111.679
0.8056                0.00764995        -47.7895          0.99746         -23.061          0.99746         -23.061       0.00962515         111.453
0.8109                0.00764384        -47.8339         0.997442        -23.2127         0.997442        -23.2127       0.00963211         111.227
0.8162                0.00763774        -47.8777         0.997424        -23.3644         0.997424        -23.3644       0.00963909         111.001
0.8215                0.00763164        -47.9208         0.997405        -23.5161         0.997405        -23.5161        0.0096461         110.774
0.8268                0.00762557        -47.9632         0.997387        -23.6679         0.997387        -23.6679       0.00965314         110.548
0.8321                 0.0076195         -48.005         0.997368        -23.8196         0.997368        -23.8196       0.00966021         110.321
0.8374                0.00761344        -48.0462          0.99735        -23.9713          0.99735        -23.9713       0.00966729         110.094
0.8427                0.00760738        -48.0868         0.997331        -24.1231         0.997331        -24.1231        0.0096744         109.867
0.848                 0.00760134        -48.1268         0.997312        -24.2748         0.997312        -24.2748       0.00968153          109.64
0.8533                0.00759531         -48.166         0.997294        -24.4265         0.997294        -24.4265        0.0096887         109.412
0.8586                0.00758929        -48.2046         0.997275        -24.5783         0.997275        -24.5783       0.00969589         109.185
0.8639                0.00758328        -48.2425         0.997257          -24.73         0.997257          -24.73       0.00970311         108.957
0.8692                0.00757727        -48.2798         0.997238        -24.8817         0.997238        -24.8817       0.00971035         108.729
0.8745                0.00757128        -48.3165         0.997219        -25.0335         0.997219        -25.0335       0.00971761         108.501
0.8798                0.00756531        -48.3524           0.9972        -25.1852           0.9972        -25.1852       0.00972492         108.272
0.8851                0.00755935        -48.3877         0.997182        -25.3369         0.997182        -25.3369       0.00973225         108.044
0.8904                0.00755339        -48.4223         0.997163        -25.4886         0.997163        -25.4886        0.0097396         107.815
0.8957                0.00754745        -48.4562         0.997144        -25.6404         0.997144        -25.6404       0.00974698         107.586
0.901                 0.00754152        -48.4895         0.997125        -25.7921         0.997125        -25.7921       0.00975439         107.357
0.9063                0.00753561         -48.522         0.997107        -25.9438         0.997107        -25.9438       0.00976184         107.128
0.9116                0.00752971        -48.5538         0.997088        -26.0956         0.997088        -26.0956       0.00976932         106.898
0.9169                0.00752382         -48.585         0.997069        -26.2473         0.997069        -26.2473       0.00977682         106.669
0.9222                0.00751795        -48.6154          0.99705         -26.399          0.99705         -26.399       0.00978435         106.439
0.9275                0.00751208        -48.6452         0.997031        -26.5508         0.997031        -26.5508       0.00979191         106.209
0.9328                0.00750624        -48.6742         0.997012        -26.7025         0.997012        -26.7025       0.00979951         105.978
0.9381                0.00750042        -48.7025         0.996993        -26.8542         0.996993        -26.8542       0.00980715         105.748
0.9434                 0.0074946        -48.7301         0.996974        -27.0059         0.996974        -27.0059        0.0098148         105.517
0.9487                 0.0074888         -48.757         0.996955        -27.1577         0.996955        -27.1577       0.00982249         105.287
0.954                 0.00748301        -48.7831         0.996936        -27.3094         0.996936        -27.3094       0.00983022         105.056
0.9593                0.00747725        -48.8085         0.996917        -27.4611         0.996917        -27.4611       0.00983798         104.824
0.9646                0.00747151        -48.8332         0.996898        -27.6129         0.996898        -27.6129       0.00984578         104.593
0.9699                0.00746577        -48.8571         0.996879        -27.7646         0.996879        -27.7646       0.00985361         104.362
0.9752                0.00746006        -48.8804          0.99686        -27.9163          0.99686        -27.9163       0.00986147          104.13
0.9805                0.00745436        -48.9028          0.99684        -28.0681          0.99684        -28.0681       0.00986936         103.898
0.9858                0.00744868        -48.9245         0.996821        -28.2198         0.996821        -28.2198        0.0098773         103.666
0.9911                0.00744303        -48.9454         0.996802        -28.3715         0.996802        -28.3715       0.00988528         103.434
0.9964                0.00743738        -48.9656         0.996783        -28.5233         0.996783        -28.5233       0.00989328         103.201