! TOUCHSTONE file generated by CST MICROWAVE STUDIO
! Date and time: Tue Jan  7 09:43:13 2020
! Project name: OSHPark_FR408_Transition2.cst
! Parameters = {GND_Plane_XMax=11.5; Cap_Disk_XOffset=0; Cap_Disk2_YCenter=-1.03; Cap_Disk_YCenter=1.03; Cap_Disk_XCenter=7.39; Cap_Disk_Radius=0.5; BottomSupport_Left_YMax=4.76; BottomSupport_Left_YMin=3.74; BottomSupport_Right_YMax=-3.74; BottomSupport_Right_YMin=-4.76; BottomSupport_XMax=11.64; BottomSupport_XMin=6.89; BottomSupport_ZMax=-1.64084; BottomSupport_ZMin=-3.58; Cu1_Thickness=0.03556; Cu2_Thickness=0.01778; Fr408Core_Thickness=1.1938; GND_Plane_Offset=2.825; PCBThickness=1.6256; Prepreg1_Zmin=-0.20574; Prepreg_Thickness=0.17018; RFTraceYMax=0.17145; RFTrace_XMax=15; RFTrace_XMin=11.46; RFTrace_YMin=-0.17145; SMA_CenterCond_Inner_XMax=11.64; SMA_CenterCond_Radius=0.6; SMA_Dielectric_InnerRadius=0.6; SMA_Dielectric_OuterRadius=2; SMA_Dielectric_XMax=5.62; SMA_Dielectric_XMin=0; SMA_Dielectric_YCenter=0; SMA_Dielectric_ZCenter=0; SMA_Footprint_Center_XMax=12.49; SMA_Footprint_Center_XMin=7.74; SMA_Footprint_Center_YMax=0.75; SMA_Footprint_Center_YMin=-0.75; SMA_OuterCond_InnerRadius=2; SMA_OuterCond_OuterRadius=3; SMA_OuterCond_XMax=6.89; SMA_XMax=6.67; SMA_XMin=0; SMA_YCenter=0; SMA_ZCenter=0; TopSupport_ZMax=1.02; TopSupport_ZMin=0; Via1_XCenter=7.5; Via1_YCenter=-4.25; Via2_XCenter=8.75; Via2_YCenter=-4.25; Via3_XCenter=10; Via3_YCenter=-4.25; Via4_XCenter=11.25; Via4_YCenter=-4.25; Via5_XCenter=7.5; Via5_YCenter=4.25; Via6_XCenter=8.75; Via6_YCenter=4.25; Via7_XCenter=10; Via7_YCenter=4.25; Via8_XCenter=11.25; Via8_YCenter=4.25; ViaInnerRadius=0; ViaOuterRadius=0.381}
! Header version: 2015
! Port assignment regex: !\s*Touchstone port\s*([0-9]+)\s*=\s*CST MWS port\s*([0-9]+)\s*\(\"(.*)\"\)(\s*mode\s*([0-9]+))?.*
! Touchstone port assignment:
! Touchstone port 1 = CST MWS port 1 ("")
! Touchstone port 2 = CST MWS port 2 ("")
# GHz S MA R 50
0                       0.111826               0         0.894798               0         0.894798               0        0.0985562               0
0.0053                 0.0105641        -28.3068         0.999955       -0.162061         0.999955       -0.162061        0.0106411         151.023
0.0106                 0.0106647        -29.3967         0.999938        -0.31111         0.999938        -0.31111        0.0105534         151.856
0.0159                 0.0107242        -30.2336         0.999921       -0.463655         0.999921       -0.463655        0.0104833         152.367
0.0212                 0.0107802        -30.9855         0.999905       -0.617072         0.999905       -0.617072        0.0104245          152.82
0.0265                 0.0108375        -31.6933         0.999888       -0.770837         0.999888       -0.770837        0.0103731         153.258
0.0318                 0.0108926        -32.3876         0.999872       -0.924777         0.999872       -0.924777        0.0103222         153.681
0.0371                 0.0109506        -33.0586         0.999855        -1.07882         0.999855        -1.07882        0.0102763          154.11
0.0424                 0.0110169        -33.6915         0.999839        -1.23291         0.999839        -1.23291        0.0102407         154.559
0.0477                 0.0110811        -34.3238         0.999822        -1.38705         0.999822        -1.38705        0.0102038         155.003
0.053                  0.0111435        -34.9563         0.999806        -1.54122         0.999806        -1.54122        0.0101658         155.442
0.0583                 0.0112034        -35.5935         0.999789        -1.69541         0.999789        -1.69541        0.0101253         155.876
0.0636                 0.0112653         -36.219         0.999773        -1.84962         0.999773        -1.84962        0.0100876         156.316
0.0689                 0.0113292        -36.8336         0.999756        -2.00384         0.999756        -2.00384        0.0100527         156.762
0.0742                 0.0113942        -37.4403         0.999739        -2.15807         0.999739        -2.15807        0.0100194         157.213
0.0795                 0.0114599        -38.0409         0.999722        -2.31231         0.999722        -2.31231       0.00998746         157.667
0.0848                 0.0115263        -38.6361         0.999706        -2.46655         0.999706        -2.46655       0.00995658         158.124
0.0901                 0.0115935        -39.2246         0.999689         -2.6208         0.999689         -2.6208       0.00992724         158.585
0.0954                 0.0116617        -39.8064         0.999672        -2.77505         0.999672        -2.77505       0.00989946         159.049
0.1007                 0.0117308        -40.3819         0.999655         -2.9293         0.999655         -2.9293       0.00987313         159.517
0.106                  0.0118006        -40.9514         0.999638        -3.08356         0.999638        -3.08356       0.00984824         159.988
0.1113                 0.0118712        -41.5149         0.999621        -3.23782         0.999621        -3.23782       0.00982476         160.462
0.1166                 0.0119427        -42.0723         0.999604        -3.39208         0.999604        -3.39208       0.00980277         160.939
0.1219                 0.0120149        -42.6237         0.999587        -3.54635         0.999587        -3.54635        0.0097823         161.419
0.1272                  0.012088        -43.1691          0.99957        -3.70061          0.99957        -3.70061       0.00976331         161.902
0.1325                 0.0121618        -43.7087         0.999553        -3.85488         0.999553        -3.85488       0.00974581         162.387
0.1378                 0.0122363        -44.2426         0.999536        -4.00915         0.999536        -4.00915        0.0097298         162.874
0.1431                 0.0123116        -44.7707         0.999519        -4.16342         0.999519        -4.16342        0.0097153         163.364
0.1484                 0.0123876        -45.2931         0.999502        -4.31769         0.999502        -4.31769       0.00970233         163.855
0.1537                 0.0124643        -45.8098         0.999485        -4.47196         0.999485        -4.47196       0.00969086         164.348
0.159                  0.0125417         -46.321         0.999468        -4.62623         0.999468        -4.62623       0.00968092         164.842
0.1643                 0.0126198        -46.8267          0.99945         -4.7805          0.99945         -4.7805       0.00967251         165.337
0.1696                 0.0126985        -47.3269         0.999433        -4.93477         0.999433        -4.93477       0.00966562         165.834
0.1749                  0.012778        -47.8218         0.999416        -5.08905         0.999416        -5.08905       0.00966027         166.331
0.1802                  0.012858        -48.3113         0.999398        -5.24332         0.999398        -5.24332       0.00965644         166.829
0.1855                 0.0129387        -48.7956         0.999381         -5.3976         0.999381         -5.3976       0.00965415         167.327
0.1908                   0.01302        -49.2746         0.999363        -5.55187         0.999363        -5.55187        0.0096534         167.826
0.1961                 0.0131019        -49.7485         0.999346        -5.70614         0.999346        -5.70614       0.00965418         168.324
0.2014                 0.0131844        -50.2172         0.999328        -5.86042         0.999328        -5.86042       0.00965649         168.821
0.2067                 0.0132675         -50.681         0.999311        -6.01469         0.999311        -6.01469       0.00966033         169.319
0.212                  0.0133512        -51.1398         0.999293        -6.16897         0.999293        -6.16897        0.0096657         169.815
0.2173                 0.0134354        -51.5937         0.999276        -6.32324         0.999276        -6.32324        0.0096726          170.31
0.2226                 0.0135202        -52.0427         0.999258        -6.47752         0.999258        -6.47752       0.00968102         170.804
0.2279                 0.0136055        -52.4869          0.99924         -6.6318          0.99924         -6.6318       0.00969095         171.297
0.2332                 0.0136913        -52.9265         0.999223        -6.78607         0.999223        -6.78607       0.00970239         171.788
0.2385                 0.0137776        -53.3613         0.999205        -6.94035         0.999205        -6.94035       0.00971533         172.277
0.2438                 0.0138644        -53.7916         0.999187        -7.09462         0.999187        -7.09462       0.00972979         172.763
0.2491                 0.0139518        -54.2173         0.999169         -7.2489         0.999169         -7.2489       0.00974573         173.248
0.2544                 0.0140396        -54.6385         0.999151        -7.40317         0.999151        -7.40317       0.00976314          173.73
0.2597                 0.0141278        -55.0553         0.999133        -7.55745         0.999133        -7.55745       0.00978203         174.209
0.265                  0.0142166        -55.4678         0.999115        -7.71173         0.999115        -7.71173       0.00980238         174.685
0.2703                 0.0143058        -55.8759         0.999097          -7.866         0.999097          -7.866       0.00982419         175.158
0.2756                 0.0143954        -56.2797         0.999079        -8.02028         0.999079        -8.02028       0.00984745         175.627
0.2809                 0.0144854        -56.6794         0.999061        -8.17455         0.999061        -8.17455       0.00987213         176.094
0.2862                 0.0145759         -57.075         0.999043        -8.32883         0.999043        -8.32883       0.00989824         176.556
0.2915                 0.0146668        -57.4665         0.999025        -8.48311         0.999025        -8.48311       0.00992574         177.015
0.2968                 0.0147581         -57.854         0.999007        -8.63738         0.999007        -8.63738       0.00995466         177.469
0.3021                 0.0148498        -58.2375         0.998989        -8.79166         0.998989        -8.79166       0.00998496          177.92
0.3074                 0.0149419        -58.6171         0.998971        -8.94593         0.998971        -8.94593        0.0100166         178.366
0.3127                 0.0150343        -58.9929         0.998952        -9.10021         0.998952        -9.10021        0.0100496         178.807
0.318                  0.0151271        -59.3649         0.998934        -9.25448         0.998934        -9.25448         0.010084         179.244
0.3233                 0.0152203        -59.7331         0.998916        -9.40876         0.998916        -9.40876        0.0101197         179.676
0.3286                 0.0153139        -60.0977         0.998898        -9.56303         0.998898        -9.56303        0.0101567        -179.896
0.3339                 0.0154077        -60.4586         0.998879        -9.71731         0.998879        -9.71731         0.010195        -179.474
0.3392                 0.0155019         -60.816         0.998861        -9.87158         0.998861        -9.87158        0.0102346        -179.056
0.3445                 0.0155965        -61.1699         0.998842        -10.0259         0.998842        -10.0259        0.0102754        -178.644
0.3498                 0.0156914        -61.5202         0.998824        -10.1801         0.998824        -10.1801        0.0103175        -178.237
0.3551                 0.0157866        -61.8671         0.998805        -10.3344         0.998805        -10.3344        0.0103608        -177.836
0.3604                 0.0158821        -62.2107         0.998787        -10.4887         0.998787        -10.4887        0.0104054         -177.44
0.3657                 0.0159778        -62.5509         0.998768         -10.643         0.998768         -10.643        0.0104511        -177.049
0.371                  0.0160739        -62.8879          0.99875        -10.7972          0.99875        -10.7972         0.010498        -176.664
0.3763                 0.0161703        -63.2216         0.998731        -10.9515         0.998731        -10.9515        0.0105461        -176.285
0.3816                  0.016267        -63.5521         0.998712        -11.1058         0.998712        -11.1058        0.0105953        -175.912
0.3869                 0.0163639        -63.8796         0.998694        -11.2601         0.998694        -11.2601        0.0106457        -175.544
0.3922                 0.0164611        -64.2039         0.998675        -11.4143         0.998675        -11.4143        0.0106972        -175.182
0.3975                 0.0165586        -64.5252         0.998656        -11.5686         0.998656        -11.5686        0.0107497        -174.826
0.4028                 0.0166563        -64.8435         0.998637        -11.7229         0.998637        -11.7229        0.0108034        -174.476
0.4081                 0.0167543        -65.1588         0.998618        -11.8771         0.998618        -11.8771        0.0108581        -174.131
0.4134                 0.0168525        -65.4713         0.998599        -12.0314         0.998599        -12.0314        0.0109139        -173.793
0.4187                 0.0169509        -65.7809          0.99858        -12.1857          0.99858        -12.1857        0.0109707        -173.461
0.424                  0.0170496        -66.0876         0.998562          -12.34         0.998562          -12.34        0.0110285        -173.134
0.4293                 0.0171486        -66.3916         0.998543        -12.4942         0.998543        -12.4942        0.0110873        -172.814
0.4346                 0.0172477        -66.6928         0.998523        -12.6485         0.998523        -12.6485        0.0111471        -172.499
0.4399                  0.017347        -66.9913         0.998504        -12.8028         0.998504        -12.8028        0.0112078        -172.191
0.4452                 0.0174466        -67.2872         0.998485        -12.9571         0.998485        -12.9571        0.0112695        -171.888
0.4505                 0.0175464        -67.5805         0.998466        -13.1113         0.998466        -13.1113        0.0113321        -171.592
0.4558                 0.0176464        -67.8711         0.998447        -13.2656         0.998447        -13.2656        0.0113956        -171.301
0.4611                 0.0177465        -68.1592         0.998428        -13.4199         0.998428        -13.4199          0.01146        -171.016
0.4664                 0.0178469        -68.4449         0.998409        -13.5741         0.998409        -13.5741        0.0115253        -170.738
0.4717                 0.0179474         -68.728         0.998389        -13.7284         0.998389        -13.7284        0.0115914        -170.465
0.477                  0.0180482        -69.0087          0.99837        -13.8827          0.99837        -13.8827        0.0116584        -170.198
0.4823                 0.0181491         -69.287         0.998351        -14.0369         0.998351        -14.0369        0.0117262        -169.937
0.4876                 0.0182502         -69.563         0.998331        -14.1912         0.998331        -14.1912        0.0117948        -169.681
0.4929                 0.0183514        -69.8366         0.998312        -14.3455         0.998312        -14.3455        0.0118643        -169.432
0.4982                 0.0184528         -70.108         0.998293        -14.4998         0.998293        -14.4998        0.0119345        -169.188
0.5035                 0.0185544         -70.377         0.998273         -14.654         0.998273         -14.654        0.0120054         -168.95
0.5088                 0.0186562        -70.6439         0.998254        -14.8083         0.998254        -14.8083        0.0120772        -168.718
0.5141                  0.018758        -70.9085         0.998234        -14.9626         0.998234        -14.9626        0.0121496        -168.491
0.5194                 0.0188601         -71.171         0.998215        -15.1168         0.998215        -15.1168        0.0122228        -168.269
0.5247                 0.0189623        -71.4313         0.998195        -15.2711         0.998195        -15.2711        0.0122967        -168.054
0.53                   0.0190646        -71.6896         0.998175        -15.4254         0.998175        -15.4254        0.0123713        -167.843
0.5353                  0.019167        -71.9457         0.998156        -15.5796         0.998156        -15.5796        0.0124466        -167.639
0.5406                 0.0192696        -72.1999         0.998136        -15.7339         0.998136        -15.7339        0.0125225        -167.439
0.5459                 0.0193723         -72.452         0.998116        -15.8882         0.998116        -15.8882        0.0125991        -167.245
0.5512                 0.0194752        -72.7021         0.998096        -16.0425         0.998096        -16.0425        0.0126763        -167.056
0.5565                 0.0195781        -72.9503         0.998077        -16.1967         0.998077        -16.1967        0.0127542        -166.873
0.5618                 0.0196812        -73.1965         0.998057         -16.351         0.998057         -16.351        0.0128327        -166.694
0.5671                 0.0197844        -73.4409         0.998037        -16.5053         0.998037        -16.5053        0.0129117        -166.521
0.5724                 0.0198877        -73.6834         0.998017        -16.6595         0.998017        -16.6595        0.0129914        -166.353
0.5777                 0.0199912         -73.924         0.997997        -16.8138         0.997997        -16.8138        0.0130716        -166.189
0.583                  0.0200947        -74.1628         0.997977        -16.9681         0.997977        -16.9681        0.0131524        -166.031
0.5883                 0.0201983        -74.3998         0.997957        -17.1223         0.997957        -17.1223        0.0132338        -165.878
0.5936                  0.020302         -74.635         0.997937        -17.2766         0.997937        -17.2766        0.0133157        -165.729
0.5989                 0.0204059        -74.8685         0.997917        -17.4309         0.997917        -17.4309        0.0133981        -165.585
0.6042                 0.0205098        -75.1003         0.997897        -17.5851         0.997897        -17.5851         0.013481        -165.446
0.6095                 0.0206138        -75.3304         0.997877        -17.7394         0.997877        -17.7394        0.0135645        -165.312
0.6148                 0.0207179        -75.5587         0.997857        -17.8937         0.997857        -17.8937        0.0136484        -165.182
0.6201                 0.0208221        -75.7854         0.997837        -18.0479         0.997837        -18.0479        0.0137329        -165.057
0.6254                 0.0209263        -76.0106         0.997816        -18.2022         0.997816        -18.2022        0.0138178        -164.936
0.6307                 0.0210307        -76.2341         0.997796        -18.3564         0.997796        -18.3564        0.0139031        -164.819
0.636                  0.0211351         -76.456         0.997776        -18.5107         0.997776        -18.5107         0.013989        -164.707
0.6413                 0.0212396        -76.6763         0.997756         -18.665         0.997756         -18.665        0.0140752          -164.6
0.6466                 0.0213441        -76.8951         0.997735        -18.8192         0.997735        -18.8192        0.0141619        -164.496
0.6519                 0.0214488        -77.1124         0.997715        -18.9735         0.997715        -18.9735        0.0142491        -164.397
0.6572                 0.0215535        -77.3282         0.997694        -19.1278         0.997694        -19.1278        0.0143366        -164.302
0.6625                 0.0216582        -77.5425         0.997674         -19.282         0.997674         -19.282        0.0144245        -164.211
0.6678                  0.021763        -77.7553         0.997653        -19.4363         0.997653        -19.4363        0.0145129        -164.124
0.6731                 0.0218679        -77.9667         0.997633        -19.5906         0.997633        -19.5906        0.0146016        -164.041
0.6784                 0.0219729        -78.1767         0.997612        -19.7448         0.997612        -19.7448        0.0146908        -163.962
0.6837                 0.0220778        -78.3853         0.997592        -19.8991         0.997592        -19.8991        0.0147802        -163.887
0.689                  0.0221829        -78.5925         0.997571        -20.0533         0.997571        -20.0533        0.0148701        -163.816
0.6943                  0.022288        -78.7983         0.997551        -20.2076         0.997551        -20.2076        0.0149603        -163.748
0.6996                 0.0223931        -79.0027          0.99753        -20.3619          0.99753        -20.3619        0.0150509        -163.684
0.7049                 0.0224983        -79.2059         0.997509        -20.5161         0.997509        -20.5161        0.0151418        -163.624
0.7102                 0.0226035        -79.4077         0.997488        -20.6704         0.997488        -20.6704         0.015233        -163.567
0.7155                 0.0227088        -79.6082         0.997468        -20.8247         0.997468        -20.8247        0.0153246        -163.514
0.7208                 0.0228141        -79.8074         0.997447        -20.9789         0.997447        -20.9789        0.0154164        -163.465
0.7261                 0.0229194        -80.0054         0.997426        -21.1332         0.997426        -21.1332        0.0155086        -163.419
0.7314                 0.0230248        -80.2021         0.997405        -21.2874         0.997405        -21.2874        0.0156011        -163.376
0.7367                 0.0231302        -80.3976         0.997384        -21.4417         0.997384        -21.4417        0.0156939        -163.337
0.742                  0.0232356        -80.5919         0.997363         -21.596         0.997363         -21.596        0.0157869        -163.301
0.7473                 0.0233411        -80.7849         0.997342        -21.7502         0.997342        -21.7502        0.0158803        -163.268
0.7526                 0.0234466        -80.9768         0.997321        -21.9045         0.997321        -21.9045        0.0159739        -163.239
0.7579                 0.0235521        -81.1675           0.9973        -22.0587           0.9973        -22.0587        0.0160678        -163.212
0.7632                 0.0236577        -81.3571         0.997279         -22.213         0.997279         -22.213         0.016162        -163.189
0.7685                 0.0237632        -81.5455         0.997258        -22.3673         0.997258        -22.3673        0.0162564        -163.169
0.7738                 0.0238688        -81.7328         0.997237        -22.5215         0.997237        -22.5215        0.0163511        -163.152
0.7791                 0.0239744        -81.9189         0.997216        -22.6758         0.997216        -22.6758         0.016446        -163.138
0.7844                   0.02408         -82.104         0.997195          -22.83         0.997195          -22.83        0.0165412        -163.126
0.7897                 0.0241856         -82.288         0.997174        -22.9843         0.997174        -22.9843        0.0166366        -163.118
0.795                  0.0242913        -82.4709         0.997152        -23.1386         0.997152        -23.1386        0.0167322        -163.113
0.8003                 0.0243969        -82.6527         0.997131        -23.2928         0.997131        -23.2928         0.016828         -163.11
0.8056                 0.0245026        -82.8335          0.99711        -23.4471          0.99711        -23.4471        0.0169241         -163.11
0.8109                 0.0246083        -83.0133         0.997088        -23.6013         0.997088        -23.6013        0.0170203        -163.113
0.8162                 0.0247139         -83.192         0.997067        -23.7556         0.997067        -23.7556        0.0171168        -163.119
0.8215                 0.0248196        -83.3697         0.997046        -23.9098         0.997046        -23.9098        0.0172135        -163.127
0.8268                 0.0249253        -83.5464         0.997024        -24.0641         0.997024        -24.0641        0.0173104        -163.138
0.8321                  0.025031        -83.7221         0.997003        -24.2184         0.997003        -24.2184        0.0174074        -163.151
0.8374                 0.0251367        -83.8969         0.996981        -24.3726         0.996981        -24.3726        0.0175047        -163.167
0.8427                 0.0252424        -84.0707          0.99696        -24.5269          0.99696        -24.5269        0.0176021        -163.186
0.848                   0.025348        -84.2435         0.996938        -24.6811         0.996938        -24.6811        0.0176997        -163.207
0.8533                 0.0254537        -84.4154         0.996917        -24.8354         0.996917        -24.8354        0.0177975         -163.23
0.8586                 0.0255594        -84.5864         0.996895        -24.9896         0.996895        -24.9896        0.0178955        -163.256
0.8639                 0.0256651        -84.7564         0.996873        -25.1439         0.996873        -25.1439        0.0179936        -163.284
0.8692                 0.0257707        -84.9255         0.996852        -25.2982         0.996852        -25.2982        0.0180919        -163.315
0.8745                 0.0258764        -85.0938          0.99683        -25.4524          0.99683        -25.4524        0.0181903        -163.348
0.8798                  0.025982        -85.2611         0.996808        -25.6067         0.996808        -25.6067        0.0182889        -163.383
0.8851                 0.0260876        -85.4275         0.996786        -25.7609         0.996786        -25.7609        0.0183877         -163.42
0.8904                 0.0261932        -85.5931         0.996765        -25.9152         0.996765        -25.9152        0.0184866         -163.46
0.8957                 0.0262988        -85.7579         0.996743        -26.0694         0.996743        -26.0694        0.0185856        -163.502
0.901                  0.0264044        -85.9217         0.996721        -26.2237         0.996721        -26.2237        0.0186847        -163.546
0.9063                 0.0265099        -86.0848         0.996699        -26.3779         0.996699        -26.3779         0.018784        -163.592
0.9116                 0.0266155         -86.247         0.996677        -26.5322         0.996677        -26.5322        0.0188835         -163.64
0.9169                  0.026721        -86.4083         0.996655        -26.6864         0.996655        -26.6864         0.018983         -163.69
0.9222                 0.0268265        -86.5689         0.996633        -26.8407         0.996633        -26.8407        0.0190827        -163.742
0.9275                  0.026932        -86.7287         0.996611        -26.9949         0.996611        -26.9949        0.0191825        -163.796
0.9328                 0.0270374        -86.8876         0.996589        -27.1492         0.996589        -27.1492        0.0192824        -163.852
0.9381                 0.0271429        -87.0458         0.996567        -27.3034         0.996567        -27.3034        0.0193824         -163.91
0.9434                 0.0272483        -87.2032         0.996545        -27.4577         0.996545        -27.4577        0.0194825         -163.97
0.9487                 0.0273536        -87.3598         0.996523         -27.612         0.996523         -27.612        0.0195828        -164.032
0.954                   0.027459        -87.5157         0.996501        -27.7662         0.996501        -27.7662        0.0196831        -164.096
0.9593                 0.0275643        -87.6708         0.996479        -27.9205         0.996479        -27.9205        0.0197835        -164.162
0.9646                 0.0276696        -87.8252         0.996456        -28.0747         0.996456        -28.0747        0.0198841        -164.229
0.9699                 0.0277748        -87.9788         0.996434         -28.229         0.996434         -28.229        0.0199847        -164.298
0.9752                 0.0278801        -88.1317         0.996412        -28.3832         0.996412        -28.3832        0.0200854        -164.369
0.9805                 0.0279853        -88.2839         0.996389        -28.5375         0.996389        -28.5375        0.0201862        -164.442
0.9858                 0.0280904        -88.4353         0.996367        -28.6917         0.996367        -28.6917        0.0202871        -164.516
0.9911                 0.0281955         -88.586         0.996345         -28.846         0.996345         -28.846         0.020388        -164.592
0.9964                 0.0283006        -88.7361         0.996322        -29.0002         0.996322        -29.0002        0.0204891         -164.67