! TOUCHSTONE file generated by CST MICROWAVE STUDIO
! Date and time: Tue Jan  7 09:43:08 2020
! Project name: OSHPark_FR408_Transition2.cst
! Parameters = {GND_Plane_XMax=12.25; Cap_Disk_XOffset=0; Cap_Disk2_YCenter=-1.03; Cap_Disk_YCenter=1.03; Cap_Disk_XCenter=7.39; Cap_Disk_Radius=0.5; BottomSupport_Left_YMax=4.76; BottomSupport_Left_YMin=3.74; BottomSupport_Right_YMax=-3.74; BottomSupport_Right_YMin=-4.76; BottomSupport_XMax=11.64; BottomSupport_XMin=6.89; BottomSupport_ZMax=-1.64084; BottomSupport_ZMin=-3.58; Cu1_Thickness=0.03556; Cu2_Thickness=0.01778; Fr408Core_Thickness=1.1938; GND_Plane_Offset=2.8; PCBThickness=1.6256; Prepreg1_Zmin=-0.20574; Prepreg_Thickness=0.17018; RFTraceYMax=0.17145; RFTrace_XMax=15; RFTrace_XMin=11.46; RFTrace_YMin=-0.17145; SMA_CenterCond_Inner_XMax=11.64; SMA_CenterCond_Radius=0.6; SMA_Dielectric_InnerRadius=0.6; SMA_Dielectric_OuterRadius=2; SMA_Dielectric_XMax=5.62; SMA_Dielectric_XMin=0; SMA_Dielectric_YCenter=0; SMA_Dielectric_ZCenter=0; SMA_Footprint_Center_XMax=12.49; SMA_Footprint_Center_XMin=7.74; SMA_Footprint_Center_YMax=0.75; SMA_Footprint_Center_YMin=-0.75; SMA_OuterCond_InnerRadius=2; SMA_OuterCond_OuterRadius=3; SMA_OuterCond_XMax=6.89; SMA_XMax=6.67; SMA_XMin=0; SMA_YCenter=0; SMA_ZCenter=0; TopSupport_ZMax=1.02; TopSupport_ZMin=0; Via1_XCenter=7.5; Via1_YCenter=-4.25; Via2_XCenter=8.75; Via2_YCenter=-4.25; Via3_XCenter=10; Via3_YCenter=-4.25; Via4_XCenter=11.25; Via4_YCenter=-4.25; Via5_XCenter=7.5; Via5_YCenter=4.25; Via6_XCenter=8.75; Via6_YCenter=4.25; Via7_XCenter=10; Via7_YCenter=4.25; Via8_XCenter=11.25; Via8_YCenter=4.25; ViaInnerRadius=0; ViaOuterRadius=0.381}
! Header version: 2015
! Port assignment regex: !\s*Touchstone port\s*([0-9]+)\s*=\s*CST MWS port\s*([0-9]+)\s*\(\"(.*)\"\)(\s*mode\s*([0-9]+))?.*
! Touchstone port assignment:
! Touchstone port 1 = CST MWS port 1 ("")
! Touchstone port 2 = CST MWS port 2 ("")
# GHz S MA R 50
0                      0.0828711               0         0.926392               0         0.926392               0        0.0642771               0
0.0053                 0.0121895        -23.7408         0.999937       -0.158591         0.999937       -0.158591        0.0123923         154.226
0.0106                 0.0121972        -24.0226         0.999923        -0.30499         0.999923        -0.30499        0.0123746         154.193
0.0159                   0.01219        -24.0306         0.999908       -0.454823         0.999908       -0.454823        0.0123927         153.927
0.0212                 0.0121747        -23.9788         0.999893       -0.605517         0.999893       -0.605517        0.0124153         153.593
0.0265                 0.0121549        -23.9058         0.999879       -0.756555         0.999879       -0.756555        0.0124383          153.23
0.0318                 0.0121353        -23.8165         0.999864       -0.907764         0.999864       -0.907764        0.0124641         152.858
0.0371                 0.0121131        -23.7235         0.999849        -1.05907         0.999849        -1.05907        0.0124887         152.475
0.0424                 0.0120847         -23.637         0.999835        -1.21044         0.999835        -1.21044        0.0125081         152.075
0.0477                 0.0120581        -23.5427          0.99982        -1.36186          0.99982        -1.36186        0.0125297         151.678
0.053                  0.0120333        -23.4415         0.999806         -1.5133         0.999806         -1.5133        0.0125535         151.283
0.0583                  0.012011        -23.3328         0.999791        -1.66476         0.999791        -1.66476          0.01258         150.892
0.0636                 0.0119878         -23.224         0.999776        -1.81623         0.999776        -1.81623        0.0126058         150.499
0.0689                 0.0119638        -23.1152         0.999761        -1.96772         0.999761        -1.96772        0.0126309         150.103
0.0742                 0.0119395        -23.0054         0.999747        -2.11922         0.999747        -2.11922        0.0126559         149.708
0.0795                 0.0119154        -22.8941         0.999732        -2.27072         0.999732        -2.27072         0.012681         149.312
0.0848                 0.0118916         -22.781         0.999717        -2.42224         0.999717        -2.42224        0.0127065         148.917
0.0901                 0.0118678        -22.6668         0.999702        -2.57375         0.999702        -2.57375         0.012732         148.522
0.0954                  0.011844        -22.5518         0.999687        -2.72527         0.999687        -2.72527        0.0127575         148.127
0.1007                 0.0118202        -22.4356         0.999672         -2.8768         0.999672         -2.8768        0.0127831         147.732
0.106                  0.0117965        -22.3184         0.999658        -3.02833         0.999658        -3.02833        0.0128087         147.338
0.1113                  0.011773           -22.2         0.999643        -3.17986         0.999643        -3.17986        0.0128344         146.943
0.1166                 0.0117495        -22.0808         0.999628        -3.33139         0.999628        -3.33139        0.0128602          146.55
0.1219                  0.011726        -21.9605         0.999613        -3.48293         0.999613        -3.48293         0.012886         146.156
0.1272                 0.0117027        -21.8394         0.999598        -3.63446         0.999598        -3.63446        0.0129118         145.763
0.1325                 0.0116794        -21.7173         0.999583          -3.786         0.999583          -3.786        0.0129376          145.37
0.1378                 0.0116563        -21.5941         0.999567        -3.93754         0.999567        -3.93754        0.0129636         144.978
0.1431                 0.0116332        -21.4701         0.999552        -4.08908         0.999552        -4.08908        0.0129895         144.586
0.1484                 0.0116102        -21.3452         0.999537        -4.24062         0.999537        -4.24062        0.0130155         144.195
0.1537                 0.0115873        -21.2193         0.999522        -4.39217         0.999522        -4.39217        0.0130415         143.803
0.159                  0.0115644        -21.0925         0.999507        -4.54371         0.999507        -4.54371        0.0130676         143.413
0.1643                 0.0115417        -20.9647         0.999492        -4.69525         0.999492        -4.69525        0.0130937         143.022
0.1696                 0.0115191         -20.836         0.999476         -4.8468         0.999476         -4.8468        0.0131199         142.632
0.1749                 0.0114966        -20.7064         0.999461        -4.99834         0.999461        -4.99834        0.0131461         142.243
0.1802                 0.0114742        -20.5759         0.999446        -5.14989         0.999446        -5.14989        0.0131723         141.853
0.1855                 0.0114519        -20.4444          0.99943        -5.30144          0.99943        -5.30144        0.0131986         141.464
0.1908                 0.0114297         -20.312         0.999415        -5.45299         0.999415        -5.45299        0.0132249         141.076
0.1961                 0.0114076        -20.1786           0.9994        -5.60454           0.9994        -5.60454        0.0132512         140.688
0.2014                 0.0113856        -20.0443         0.999384        -5.75608         0.999384        -5.75608        0.0132776           140.3
0.2067                 0.0113637        -19.9091         0.999369        -5.90763         0.999369        -5.90763         0.013304         139.913
0.212                  0.0113419        -19.7729         0.999353        -6.05918         0.999353        -6.05918        0.0133304         139.526
0.2173                 0.0113202        -19.6358         0.999338        -6.21073         0.999338        -6.21073        0.0133569          139.14
0.2226                 0.0112986        -19.4977         0.999322        -6.36228         0.999322        -6.36228        0.0133834         138.754
0.2279                 0.0112772        -19.3587         0.999307        -6.51384         0.999307        -6.51384          0.01341         138.368
0.2332                 0.0112558        -19.2187         0.999291        -6.66539         0.999291        -6.66539        0.0134366         137.982
0.2385                 0.0112346        -19.0777         0.999275        -6.81694         0.999275        -6.81694        0.0134632         137.597
0.2438                 0.0112135        -18.9358          0.99926        -6.96849          0.99926        -6.96849        0.0134899         137.213
0.2491                 0.0111925        -18.7929         0.999244        -7.12004         0.999244        -7.12004        0.0135166         136.828
0.2544                 0.0111716         -18.649         0.999228        -7.27159         0.999228        -7.27159        0.0135433         136.445
0.2597                 0.0111509        -18.5042         0.999213        -7.42315         0.999213        -7.42315        0.0135701         136.061
0.265                  0.0111303        -18.3584         0.999197         -7.5747         0.999197         -7.5747        0.0135969         135.678
0.2703                 0.0111098        -18.2115         0.999181        -7.72625         0.999181        -7.72625        0.0136238         135.295
0.2756                 0.0110894        -18.0637         0.999165        -7.87781         0.999165        -7.87781        0.0136507         134.912
0.2809                 0.0110691         -17.915         0.999149        -8.02936         0.999149        -8.02936        0.0136776          134.53
0.2862                  0.011049        -17.7652         0.999134        -8.18091         0.999134        -8.18091        0.0137046         134.148
0.2915                  0.011029        -17.6144         0.999118        -8.33247         0.999118        -8.33247        0.0137316         133.767
0.2968                 0.0110091        -17.4626         0.999102        -8.48402         0.999102        -8.48402        0.0137587         133.386
0.3021                 0.0109893        -17.3098         0.999086        -8.63558         0.999086        -8.63558        0.0137858         133.005
0.3074                 0.0109697         -17.156          0.99907        -8.78713          0.99907        -8.78713        0.0138129         132.624
0.3127                 0.0109502        -17.0012         0.999054        -8.93869         0.999054        -8.93869        0.0138401         132.244
0.318                  0.0109309        -16.8454         0.999038        -9.09024         0.999038        -9.09024        0.0138673         131.864
0.3233                 0.0109117        -16.6886         0.999022         -9.2418         0.999022         -9.2418        0.0138946         131.485
0.3286                 0.0108926        -16.5307         0.999006        -9.39335         0.999006        -9.39335        0.0139219         131.106
0.3339                 0.0108737        -16.3718         0.998989        -9.54491         0.998989        -9.54491        0.0139492         130.727
0.3392                 0.0108549        -16.2119         0.998973        -9.69646         0.998973        -9.69646        0.0139766         130.348
0.3445                 0.0108363         -16.051         0.998957        -9.84802         0.998957        -9.84802         0.014004          129.97
0.3498                 0.0108178         -15.889         0.998941        -9.99958         0.998941        -9.99958        0.0140315         129.592
0.3551                 0.0107994         -15.726         0.998925        -10.1511         0.998925        -10.1511         0.014059         129.214
0.3604                 0.0107812        -15.5619         0.998908        -10.3027         0.998908        -10.3027        0.0140866         128.837
0.3657                 0.0107632        -15.3968         0.998892        -10.4542         0.998892        -10.4542        0.0141142          128.46
0.371                  0.0107452        -15.2307         0.998876        -10.6058         0.998876        -10.6058        0.0141418         128.083
0.3763                 0.0107275        -15.0635         0.998859        -10.7574         0.998859        -10.7574        0.0141695         127.707
0.3816                 0.0107099        -14.8953         0.998843        -10.9089         0.998843        -10.9089        0.0141972         127.331
0.3869                 0.0106925         -14.726         0.998827        -11.0605         0.998827        -11.0605         0.014225         126.955
0.3922                 0.0106752        -14.5557          0.99881         -11.212          0.99881         -11.212        0.0142529         126.579
0.3975                  0.010658        -14.3843         0.998794        -11.3636         0.998794        -11.3636        0.0142807         126.204
0.4028                 0.0106411        -14.2119         0.998777        -11.5151         0.998777        -11.5151        0.0143087         125.829
0.4081                 0.0106243        -14.0384         0.998761        -11.6667         0.998761        -11.6667        0.0143366         125.454
0.4134                 0.0106077        -13.8639         0.998744        -11.8183         0.998744        -11.8183        0.0143647          125.08
0.4187                 0.0105912        -13.6883         0.998728        -11.9698         0.998728        -11.9698        0.0143927         124.705
0.424                  0.0105749        -13.5117         0.998711        -12.1214         0.998711        -12.1214        0.0144208         124.332
0.4293                 0.0105588        -13.3339         0.998694        -12.2729         0.998694        -12.2729         0.014449         123.958
0.4346                 0.0105428        -13.1552         0.998678        -12.4245         0.998678        -12.4245        0.0144773         123.585
0.4399                  0.010527        -12.9754         0.998661        -12.5761         0.998661        -12.5761        0.0145055         123.211
0.4452                 0.0105114        -12.7945         0.998644        -12.7276         0.998644        -12.7276        0.0145339         122.839
0.4505                  0.010496        -12.6126         0.998627        -12.8792         0.998627        -12.8792        0.0145622         122.466
0.4558                 0.0104807        -12.4296         0.998611        -13.0307         0.998611        -13.0307        0.0145907         122.094
0.4611                 0.0104657        -12.2455         0.998594        -13.1823         0.998594        -13.1823        0.0146192         121.722
0.4664                 0.0104508        -12.0604         0.998577        -13.3339         0.998577        -13.3339        0.0146477          121.35
0.4717                 0.0104361        -11.8742          0.99856        -13.4854          0.99856        -13.4854        0.0146763         120.978
0.477                  0.0104215         -11.687         0.998543         -13.637         0.998543         -13.637        0.0147049         120.607
0.4823                 0.0104072        -11.4987         0.998526        -13.7885         0.998526        -13.7885        0.0147336         120.236
0.4876                 0.0103931        -11.3094         0.998509        -13.9401         0.998509        -13.9401        0.0147624         119.865
0.4929                 0.0103791         -11.119         0.998492        -14.0917         0.998492        -14.0917        0.0147912         119.495
0.4982                 0.0103654        -10.9276         0.998475        -14.2432         0.998475        -14.2432        0.0148201         119.124
0.5035                 0.0103518        -10.7352         0.998458        -14.3948         0.998458        -14.3948         0.014849         118.754
0.5088                 0.0103385        -10.5416         0.998441        -14.5463         0.998441        -14.5463         0.014878         118.384
0.5141                 0.0103253        -10.3471         0.998424        -14.6979         0.998424        -14.6979        0.0149071         118.015
0.5194                 0.0103124        -10.1515         0.998407        -14.8495         0.998407        -14.8495        0.0149362         117.646
0.5247                 0.0102997         -9.9549          0.99839         -15.001          0.99839         -15.001        0.0149654         117.276
0.53                   0.0102871        -9.75726         0.998373        -15.1526         0.998373        -15.1526        0.0149946         116.908
0.5353                 0.0102748        -9.55858         0.998356        -15.3041         0.998356        -15.3041        0.0150239         116.539
0.5406                 0.0102627        -9.35888         0.998338        -15.4557         0.998338        -15.4557        0.0150533         116.171
0.5459                 0.0102508        -9.15817         0.998321        -15.6073         0.998321        -15.6073        0.0150827         115.802
0.5512                 0.0102391        -8.95645         0.998304        -15.7588         0.998304        -15.7588        0.0151122         115.435
0.5565                 0.0102276        -8.75371         0.998286        -15.9104         0.998286        -15.9104        0.0151417         115.067
0.5618                 0.0102164        -8.54997         0.998269        -16.0619         0.998269        -16.0619        0.0151713         114.699
0.5671                 0.0102053        -8.34523         0.998252        -16.2135         0.998252        -16.2135         0.015201         114.332
0.5724                 0.0101945         -8.1395         0.998234        -16.3651         0.998234        -16.3651        0.0152307         113.965
0.5777                  0.010184        -7.93278         0.998217        -16.5166         0.998217        -16.5166        0.0152605         113.598
0.583                  0.0101736        -7.72509         0.998199        -16.6682         0.998199        -16.6682        0.0152904         113.232
0.5883                 0.0101635        -7.51641         0.998182        -16.8198         0.998182        -16.8198        0.0153204         112.866
0.5936                 0.0101536        -7.30677         0.998164        -16.9713         0.998164        -16.9713        0.0153504         112.499
0.5989                  0.010144        -7.09617         0.998147        -17.1229         0.998147        -17.1229        0.0153805         112.134
0.6042                 0.0101345        -6.88462         0.998129        -17.2744         0.998129        -17.2744        0.0154106         111.768
0.6095                 0.0101254        -6.67213         0.998112         -17.426         0.998112         -17.426        0.0154409         111.402
0.6148                 0.0101164        -6.45869         0.998094        -17.5776         0.998094        -17.5776        0.0154712         111.037
0.6201                 0.0101077        -6.24433         0.998076        -17.7291         0.998076        -17.7291        0.0155015         110.672
0.6254                 0.0100993        -6.02904         0.998059        -17.8807         0.998059        -17.8807         0.015532         110.308
0.6307                 0.0100911        -5.81285         0.998041        -18.0323         0.998041        -18.0323        0.0155625         109.943
0.636                  0.0100831        -5.59575         0.998023        -18.1838         0.998023        -18.1838        0.0155931         109.579
0.6413                 0.0100755        -5.37776         0.998006        -18.3354         0.998006        -18.3354        0.0156237         109.215
0.6466                  0.010068        -5.15889         0.997988         -18.487         0.997988         -18.487        0.0156545         108.851
0.6519                 0.0100608        -4.93914          0.99797        -18.6385          0.99797        -18.6385        0.0156853         108.487
0.6572                 0.0100539        -4.71853         0.997952        -18.7901         0.997952        -18.7901        0.0157162         108.123
0.6625                 0.0100472        -4.49707         0.997934        -18.9417         0.997934        -18.9417        0.0157472          107.76
0.6678                 0.0100408        -4.27477         0.997916        -19.0932         0.997916        -19.0932        0.0157782         107.397
0.6731                 0.0100347        -4.05165         0.997898        -19.2448         0.997898        -19.2448        0.0158093         107.034
0.6784                 0.0100288         -3.8277          0.99788        -19.3963          0.99788        -19.3963        0.0158406         106.672
0.6837                 0.0100232        -3.60295         0.997862        -19.5479         0.997862        -19.5479        0.0158718         106.309
0.689                  0.0100179         -3.3774         0.997844        -19.6995         0.997844        -19.6995        0.0159032         105.947
0.6943                 0.0100128        -3.15107         0.997826         -19.851         0.997826         -19.851        0.0159347         105.585
0.6996                  0.010008        -2.92398         0.997808        -20.0026         0.997808        -20.0026        0.0159662         105.223
0.7049                 0.0100035        -2.69613          0.99779        -20.1542          0.99779        -20.1542        0.0159978         104.862
0.7102                0.00999931        -2.46754         0.997772        -20.3057         0.997772        -20.3057        0.0160295         104.501
0.7155                0.00999536        -2.23822         0.997754        -20.4573         0.997754        -20.4573        0.0160613         104.139
0.7208                0.00999171        -2.00819         0.997735        -20.6089         0.997735        -20.6089        0.0160932         103.778
0.7261                0.00998834        -1.77746         0.997717        -20.7604         0.997717        -20.7604        0.0161251         103.418
0.7314                0.00998526        -1.54605         0.997699         -20.912         0.997699         -20.912        0.0161572         103.057
0.7367                0.00998246        -1.31397         0.997681        -21.0636         0.997681        -21.0636        0.0161893         102.697
0.742                 0.00997996        -1.08123         0.997662        -21.2151         0.997662        -21.2151        0.0162215         102.337
0.7473                0.00997776       -0.847857         0.997644        -21.3667         0.997644        -21.3667        0.0162538         101.977
0.7526                0.00997586       -0.613863         0.997626        -21.5183         0.997626        -21.5183        0.0162862         101.617
0.7579                0.00997425       -0.379262         0.997607        -21.6698         0.997607        -21.6698        0.0163187         101.258
0.7632                0.00997293        -0.14407         0.997589        -21.8214         0.997589        -21.8214        0.0163513         100.899
0.7685                0.00997192       0.0916938          0.99757         -21.973          0.99757         -21.973        0.0163839          100.54
0.7738                0.00997123        0.328009         0.997552        -22.1245         0.997552        -22.1245        0.0164167         100.181
0.7791                0.00997084        0.564862         0.997533        -22.2761         0.997533        -22.2761        0.0164495         99.8224
0.7844                0.00997075        0.802239         0.997515        -22.4277         0.997515        -22.4277        0.0164825          99.464
0.7897                0.00997098         1.04012         0.997496        -22.5792         0.997496        -22.5792        0.0165155         99.1058
0.795                 0.00997151         1.27848         0.997477        -22.7308         0.997477        -22.7308        0.0165487         98.7478
0.8003                0.00997237         1.51731         0.997459        -22.8824         0.997459        -22.8824        0.0165819         98.3901
0.8056                0.00997354         1.75658          0.99744        -23.0339          0.99744        -23.0339        0.0166152         98.0326
0.8109                0.00997502         1.99629         0.997421        -23.1855         0.997421        -23.1855        0.0166486         97.6752
0.8162                0.00997683         2.23641         0.997403        -23.3371         0.997403        -23.3371        0.0166822         97.3181
0.8215                0.00997895         2.47691         0.997384        -23.4887         0.997384        -23.4887        0.0167158         96.9612
0.8268                0.00998141         2.71778         0.997365        -23.6402         0.997365        -23.6402        0.0167495         96.6046
0.8321                0.00998419           2.959         0.997346        -23.7918         0.997346        -23.7918        0.0167833         96.2481
0.8374                 0.0099873         3.20056         0.997327        -23.9434         0.997327        -23.9434        0.0168172         95.8919
0.8427                0.00999073         3.44243         0.997309        -24.0949         0.997309        -24.0949        0.0168513         95.5358
0.848                 0.00999449         3.68459          0.99729        -24.2465          0.99729        -24.2465        0.0168854           95.18
0.8533                0.00999859         3.92701         0.997271        -24.3981         0.997271        -24.3981        0.0169196         94.8244
0.8586                  0.010003         4.16968         0.997252        -24.5496         0.997252        -24.5496         0.016954          94.469
0.8639                 0.0100078         4.41258         0.997233        -24.7012         0.997233        -24.7012        0.0169884         94.1138
0.8692                 0.0100129         4.65569         0.997214        -24.8528         0.997214        -24.8528        0.0170229         93.7589
0.8745                 0.0100183         4.89899         0.997195        -25.0043         0.997195        -25.0043        0.0170576         93.4041
0.8798                 0.0100241         5.14244         0.997176        -25.1559         0.997176        -25.1559        0.0170923         93.0496
0.8851                 0.0100303         5.38604         0.997157        -25.3075         0.997157        -25.3075        0.0171272         92.6954
0.8904                 0.0100367         5.62976         0.997137        -25.4591         0.997137        -25.4591        0.0171621         92.3413
0.8957                 0.0100435         5.87358         0.997118        -25.6106         0.997118        -25.6106        0.0171972         91.9874
0.901                  0.0100507         6.11748         0.997099        -25.7622         0.997099        -25.7622        0.0172324         91.6338
0.9063                 0.0100582         6.36143          0.99708        -25.9138          0.99708        -25.9138        0.0172677         91.2804
0.9116                 0.0100661          6.6054         0.997061        -26.0653         0.997061        -26.0653        0.0173031         90.9272
0.9169                 0.0100743          6.8494         0.997041        -26.2169         0.997041        -26.2169        0.0173386         90.5742
0.9222                 0.0100828         7.09338         0.997022        -26.3685         0.997022        -26.3685        0.0173742         90.2215
0.9275                 0.0100918         7.33734         0.997003        -26.5201         0.997003        -26.5201        0.0174099          89.869
0.9328                  0.010101         7.58122         0.996983        -26.6716         0.996983        -26.6716        0.0174458         89.5167
0.9381                 0.0101107         7.82502         0.996964        -26.8232         0.996964        -26.8232        0.0174818         89.1646
0.9434                 0.0101206         8.06873         0.996944        -26.9748         0.996944        -26.9748        0.0175178         88.8128
0.9487                  0.010131         8.31232         0.996925        -27.1263         0.996925        -27.1263         0.017554         88.4612
0.954                  0.0101417         8.55576         0.996905        -27.2779         0.996905        -27.2779        0.0175903         88.1098
0.9593                 0.0101527         8.79902         0.996886        -27.4295         0.996886        -27.4295        0.0176268         87.7586
0.9646                 0.0101642         9.04208         0.996866        -27.5811         0.996866        -27.5811        0.0176633         87.4077
0.9699                  0.010176         9.28494         0.996847        -27.7326         0.996847        -27.7326           0.0177          87.057
0.9752                 0.0101881         9.52756         0.996827        -27.8842         0.996827        -27.8842        0.0177367         86.7065
0.9805                 0.0102006         9.76993         0.996808        -28.0358         0.996808        -28.0358        0.0177736         86.3563
0.9858                 0.0102135          10.012         0.996788        -28.1874         0.996788        -28.1874        0.0178106         86.0063
0.9911                 0.0102267         10.2538         0.996768        -28.3389         0.996768        -28.3389        0.0178478         85.6566
0.9964                 0.0102404         10.4952         0.996749        -28.4905         0.996749        -28.4905         0.017885         85.3071