! TOUCHSTONE file generated by CST MICROWAVE STUDIO
! Date and time: Tue Jan  7 09:43:03 2020
! Project name: OSHPark_FR408_Transition2.cst
! Parameters = {GND_Plane_XMax=11.5; Cap_Disk_XOffset=0; Cap_Disk2_YCenter=-1.03; Cap_Disk_YCenter=1.03; Cap_Disk_XCenter=7.39; Cap_Disk_Radius=0.5; BottomSupport_Left_YMax=4.76; BottomSupport_Left_YMin=3.74; BottomSupport_Right_YMax=-3.74; BottomSupport_Right_YMin=-4.76; BottomSupport_XMax=11.64; BottomSupport_XMin=6.89; BottomSupport_ZMax=-1.64084; BottomSupport_ZMin=-3.58; Cu1_Thickness=0.03556; Cu2_Thickness=0.01778; Fr408Core_Thickness=1.1938; GND_Plane_Offset=2.8; PCBThickness=1.6256; Prepreg1_Zmin=-0.20574; Prepreg_Thickness=0.17018; RFTraceYMax=0.17145; RFTrace_XMax=15; RFTrace_XMin=11.46; RFTrace_YMin=-0.17145; SMA_CenterCond_Inner_XMax=11.64; SMA_CenterCond_Radius=0.6; SMA_Dielectric_InnerRadius=0.6; SMA_Dielectric_OuterRadius=2; SMA_Dielectric_XMax=5.62; SMA_Dielectric_XMin=0; SMA_Dielectric_YCenter=0; SMA_Dielectric_ZCenter=0; SMA_Footprint_Center_XMax=12.49; SMA_Footprint_Center_XMin=7.74; SMA_Footprint_Center_YMax=0.75; SMA_Footprint_Center_YMin=-0.75; SMA_OuterCond_InnerRadius=2; SMA_OuterCond_OuterRadius=3; SMA_OuterCond_XMax=6.89; SMA_XMax=6.67; SMA_XMin=0; SMA_YCenter=0; SMA_ZCenter=0; TopSupport_ZMax=1.02; TopSupport_ZMin=0; Via1_XCenter=7.5; Via1_YCenter=-4.25; Via2_XCenter=8.75; Via2_YCenter=-4.25; Via3_XCenter=10; Via3_YCenter=-4.25; Via4_XCenter=11.25; Via4_YCenter=-4.25; Via5_XCenter=7.5; Via5_YCenter=4.25; Via6_XCenter=8.75; Via6_YCenter=4.25; Via7_XCenter=10; Via7_YCenter=4.25; Via8_XCenter=11.25; Via8_YCenter=4.25; ViaInnerRadius=0; ViaOuterRadius=0.381}
! Header version: 2015
! Port assignment regex: !\s*Touchstone port\s*([0-9]+)\s*=\s*CST MWS port\s*([0-9]+)\s*\(\"(.*)\"\)(\s*mode\s*([0-9]+))?.*
! Touchstone port assignment:
! Touchstone port 1 = CST MWS port 1 ("")
! Touchstone port 2 = CST MWS port 2 ("")
# GHz S MA R 50
0                       0.103809               0         0.901191               0         0.901191               0        0.0938329               0
0.0053                 0.0122547         -24.396         0.999935       -0.161514         0.999935       -0.161514         0.012332         154.897
0.0106                 0.0123319        -25.3494         0.999919       -0.310592         0.999919       -0.310592        0.0122555         155.554
0.0159                  0.012385        -26.0424         0.999902       -0.463161         0.999902       -0.463161        0.0122062         155.956
0.0212                 0.0124326        -26.6682         0.999886       -0.616604         0.999886       -0.616604        0.0121643         156.297
0.0265                 0.0124786         -27.265          0.99987       -0.770395          0.99987       -0.770395        0.0121259         156.615
0.0318                 0.0125242        -27.8457         0.999853        -0.92436         0.999853        -0.92436        0.0120898         156.922
0.0371                   0.01257        -28.4158         0.999837        -1.07843         0.999837        -1.07843        0.0120554         157.225
0.0424                 0.0126162        -28.9779         0.999821        -1.23255         0.999821        -1.23255        0.0120224         157.525
0.0477                  0.012663        -29.5335         0.999804        -1.38672         0.999804        -1.38672        0.0119908         157.825
0.053                  0.0127104        -30.0836         0.999788        -1.54092         0.999788        -1.54092        0.0119603         158.126
0.0583                 0.0127584        -30.6286         0.999771        -1.69514         0.999771        -1.69514        0.0119309         158.428
0.0636                 0.0128072        -31.1689         0.999755        -1.84937         0.999755        -1.84937        0.0119026          158.73
0.0689                 0.0128567        -31.7047         0.999738        -2.00362         0.999738        -2.00362        0.0118754         159.035
0.0742                 0.0129069        -32.2362         0.999721        -2.15788         0.999721        -2.15788        0.0118492         159.341
0.0795                 0.0129578        -32.7636         0.999705        -2.31214         0.999705        -2.31214        0.0118241         159.648
0.0848                 0.0130095        -33.2869         0.999688        -2.46641         0.999688        -2.46641        0.0118001         159.958
0.0901                 0.0130619        -33.8062         0.999671        -2.62068         0.999671        -2.62068        0.0117772         160.269
0.0954                 0.0131151        -34.3216         0.999655        -2.77496         0.999655        -2.77496        0.0117552         160.581
0.1007                 0.0131689         -34.833         0.999638        -2.92925         0.999638        -2.92925        0.0117344         160.895
0.106                  0.0132235        -35.3406         0.999621        -3.08353         0.999621        -3.08353        0.0117146         161.211
0.1113                 0.0132788        -35.8444         0.999604        -3.23782         0.999604        -3.23782        0.0116958         161.529
0.1166                 0.0133348        -36.3443         0.999587        -3.39211         0.999587        -3.39211        0.0116782         161.848
0.1219                 0.0133915        -36.8404         0.999571         -3.5464         0.999571         -3.5464        0.0116615         162.168
0.1272                 0.0134489        -37.3327         0.999554        -3.70069         0.999554        -3.70069         0.011646          162.49
0.1325                 0.0135069        -37.8213         0.999537        -3.85499         0.999537        -3.85499        0.0116315         162.813
0.1378                 0.0135656        -38.3061          0.99952        -4.00928          0.99952        -4.00928        0.0116181         163.137
0.1431                  0.013625        -38.7871         0.999503        -4.16358         0.999503        -4.16358        0.0116057         163.462
0.1484                 0.0136851        -39.2645         0.999485        -4.31788         0.999485        -4.31788        0.0115945         163.788
0.1537                 0.0137458        -39.7381         0.999468        -4.47218         0.999468        -4.47218        0.0115843         164.115
0.159                  0.0138071        -40.2081         0.999451        -4.62648         0.999451        -4.62648        0.0115752         164.443
0.1643                 0.0138691        -40.6744         0.999434        -4.78078         0.999434        -4.78078        0.0115672         164.771
0.1696                 0.0139316         -41.137         0.999417        -4.93508         0.999417        -4.93508        0.0115602           165.1
0.1749                 0.0139948         -41.596           0.9994        -5.08938           0.9994        -5.08938        0.0115544          165.43
0.1802                 0.0140586        -42.0514         0.999382        -5.24368         0.999382        -5.24368        0.0115496          165.76
0.1855                  0.014123        -42.5032         0.999365        -5.39798         0.999365        -5.39798        0.0115459          166.09
0.1908                 0.0141879        -42.9514         0.999348        -5.55229         0.999348        -5.55229        0.0115433         166.421
0.1961                 0.0142535         -43.396          0.99933        -5.70659          0.99933        -5.70659        0.0115418         166.751
0.2014                 0.0143196        -43.8371         0.999313        -5.86089         0.999313        -5.86089        0.0115414         167.082
0.2067                 0.0143862        -44.2747         0.999296        -6.01519         0.999296        -6.01519         0.011542         167.413
0.212                  0.0144534        -44.7087         0.999278         -6.1695         0.999278         -6.1695        0.0115438         167.743
0.2173                 0.0145212        -45.1393         0.999261         -6.3238         0.999261         -6.3238        0.0115466         168.073
0.2226                 0.0145894        -45.5664         0.999243         -6.4781         0.999243         -6.4781        0.0115506         168.402
0.2279                 0.0146582        -45.9901         0.999225        -6.63241         0.999225        -6.63241        0.0115555         168.731
0.2332                 0.0147275        -46.4104         0.999208        -6.78671         0.999208        -6.78671        0.0115616          169.06
0.2385                 0.0147973        -46.8273          0.99919        -6.94102          0.99919        -6.94102        0.0115688         169.387
0.2438                 0.0148677        -47.2408         0.999172        -7.09532         0.999172        -7.09532         0.011577         169.714
0.2491                 0.0149385         -47.651         0.999155        -7.24963         0.999155        -7.24963        0.0115863          170.04
0.2544                 0.0150097        -48.0579         0.999137        -7.40393         0.999137        -7.40393        0.0115967         170.365
0.2597                 0.0150815        -48.4615         0.999119        -7.55823         0.999119        -7.55823        0.0116081         170.688
0.265                  0.0151537        -48.8618         0.999101        -7.71254         0.999101        -7.71254        0.0116206         171.011
0.2703                 0.0152264        -49.2589         0.999084        -7.86684         0.999084        -7.86684        0.0116342         171.332
0.2756                 0.0152995        -49.6528         0.999066        -8.02115         0.999066        -8.02115        0.0116488         171.651
0.2809                 0.0153731        -50.0435         0.999048        -8.17545         0.999048        -8.17545        0.0116645         171.969
0.2862                 0.0154471         -50.431          0.99903        -8.32975          0.99903        -8.32975        0.0116812         172.286
0.2915                 0.0155216        -50.8155         0.999012        -8.48406         0.999012        -8.48406        0.0116989         172.601
0.2968                 0.0155964        -51.1967         0.998994        -8.63836         0.998994        -8.63836        0.0117177         172.913
0.3021                 0.0156717        -51.5749         0.998976        -8.79267         0.998976        -8.79267        0.0117375         173.224
0.3074                 0.0157474        -51.9501         0.998958        -8.94697         0.998958        -8.94697        0.0117584         173.533
0.3127                 0.0158235        -52.3223          0.99894        -9.10128          0.99894        -9.10128        0.0117802          173.84
0.318                     0.0159        -52.6915         0.998922        -9.25558         0.998922        -9.25558         0.011803         174.145
0.3233                 0.0159768        -53.0577         0.998903        -9.40988         0.998903        -9.40988        0.0118269         174.448
0.3286                 0.0160541        -53.4209         0.998885        -9.56419         0.998885        -9.56419        0.0118518         174.748
0.3339                 0.0161317        -53.7813         0.998867        -9.71849         0.998867        -9.71849        0.0118776         175.046
0.3392                 0.0162097        -54.1387         0.998849         -9.8728         0.998849         -9.8728        0.0119045         175.342
0.3445                  0.016288        -54.4934          0.99883        -10.0271          0.99883        -10.0271        0.0119323         175.635
0.3498                 0.0163667        -54.8451         0.998812        -10.1814         0.998812        -10.1814         0.011961         175.925
0.3551                 0.0164458        -55.1941         0.998794        -10.3357         0.998794        -10.3357        0.0119908         176.213
0.3604                 0.0165251        -55.5403         0.998775          -10.49         0.998775          -10.49        0.0120214         176.498
0.3657                 0.0166049        -55.8838         0.998757        -10.6443         0.998757        -10.6443        0.0120531          176.78
0.371                  0.0166849        -56.2246         0.998738        -10.7986         0.998738        -10.7986        0.0120856         177.059
0.3763                 0.0167653        -56.5626          0.99872        -10.9529          0.99872        -10.9529        0.0121191         177.335
0.3816                  0.016846         -56.898         0.998701        -11.1072         0.998701        -11.1072        0.0121535         177.609
0.3869                  0.016927        -57.2308         0.998683        -11.2615         0.998683        -11.2615        0.0121889         177.879
0.3922                 0.0170083         -57.561         0.998664        -11.4158         0.998664        -11.4158        0.0122251         178.147
0.3975                 0.0170899        -57.8886         0.998645        -11.5701         0.998645        -11.5701        0.0122622         178.411
0.4028                 0.0171718        -58.2136         0.998627        -11.7244         0.998627        -11.7244        0.0123002         178.672
0.4081                 0.0172539        -58.5361         0.998608        -11.8787         0.998608        -11.8787        0.0123391          178.93
0.4134                 0.0173364        -58.8561         0.998589         -12.033         0.998589         -12.033        0.0123788         179.185
0.4187                 0.0174192        -59.1736         0.998571        -12.1873         0.998571        -12.1873        0.0124194         179.437
0.424                  0.0175022        -59.4887         0.998552        -12.3416         0.998552        -12.3416        0.0124608         179.685
0.4293                 0.0175855        -59.8014         0.998533        -12.4959         0.998533        -12.4959        0.0125031          179.93
0.4346                  0.017669        -60.1117         0.998514        -12.6502         0.998514        -12.6502        0.0125462        -179.829
0.4399                 0.0177528        -60.4196         0.998495        -12.8045         0.998495        -12.8045        0.0125901        -179.591
0.4452                 0.0178369        -60.7252         0.998476        -12.9589         0.998476        -12.9589        0.0126349        -179.356
0.4505                 0.0179212        -61.0284         0.998457        -13.1132         0.998457        -13.1132        0.0126804        -179.125
0.4558                 0.0180057        -61.3294         0.998438        -13.2675         0.998438        -13.2675        0.0127267        -178.897
0.4611                 0.0180905        -61.6281         0.998419        -13.4218         0.998419        -13.4218        0.0127738        -178.673
0.4664                 0.0181756        -61.9246           0.9984        -13.5761           0.9984        -13.5761        0.0128217        -178.452
0.4717                 0.0182608        -62.2188         0.998381        -13.7304         0.998381        -13.7304        0.0128703        -178.235
0.477                  0.0183463        -62.5109         0.998362        -13.8847         0.998362        -13.8847        0.0129197        -178.021
0.4823                  0.018432        -62.8007         0.998343         -14.039         0.998343         -14.039        0.0129699        -177.811
0.4876                 0.0185179        -63.0885         0.998324        -14.1933         0.998324        -14.1933        0.0130207        -177.605
0.4929                  0.018604        -63.3741         0.998304        -14.3476         0.998304        -14.3476        0.0130723        -177.402
0.4982                 0.0186903        -63.6576         0.998285        -14.5019         0.998285        -14.5019        0.0131246        -177.202
0.5035                 0.0187769        -63.9391         0.998266        -14.6562         0.998266        -14.6562        0.0131776        -177.006
0.5088                 0.0188636        -64.2185         0.998247        -14.8105         0.998247        -14.8105        0.0132313        -176.814
0.5141                 0.0189505        -64.4959         0.998227        -14.9648         0.998227        -14.9648        0.0132857        -176.625
0.5194                 0.0190377        -64.7713         0.998208        -15.1191         0.998208        -15.1191        0.0133407         -176.44
0.5247                  0.019125        -65.0447         0.998188        -15.2734         0.998188        -15.2734        0.0133965        -176.259
0.53                   0.0192125        -65.3161         0.998169        -15.4277         0.998169        -15.4277        0.0134528        -176.081
0.5353                 0.0193001        -65.5856          0.99815         -15.582          0.99815         -15.582        0.0135099        -175.906
0.5406                  0.019388        -65.8532          0.99813        -15.7363          0.99813        -15.7363        0.0135675        -175.736
0.5459                  0.019476        -66.1189          0.99811        -15.8906          0.99811        -15.8906        0.0136258        -175.568
0.5512                 0.0195642        -66.3827         0.998091        -16.0449         0.998091        -16.0449        0.0136847        -175.405
0.5565                 0.0196525        -66.6447         0.998071        -16.1992         0.998071        -16.1992        0.0137442        -175.245
0.5618                  0.019741        -66.9048         0.998052        -16.3535         0.998052        -16.3535        0.0138043        -175.088
0.5671                 0.0198297        -67.1631         0.998032        -16.5078         0.998032        -16.5078        0.0138651        -174.935
0.5724                 0.0199185        -67.4197         0.998012        -16.6621         0.998012        -16.6621        0.0139263        -174.785
0.5777                 0.0200075        -67.6745         0.997993        -16.8163         0.997993        -16.8163        0.0139882        -174.639
0.583                  0.0200966        -67.9275         0.997973        -16.9706         0.997973        -16.9706        0.0140506        -174.497
0.5883                 0.0201859        -68.1788         0.997953        -17.1249         0.997953        -17.1249        0.0141136        -174.358
0.5936                 0.0202753        -68.4283         0.997933        -17.2792         0.997933        -17.2792        0.0141772        -174.222
0.5989                 0.0203648        -68.6762         0.997913        -17.4335         0.997913        -17.4335        0.0142413         -174.09
0.6042                 0.0204545        -68.9225         0.997893        -17.5878         0.997893        -17.5878        0.0143059        -173.961
0.6095                 0.0205443        -69.1671         0.997873        -17.7421         0.997873        -17.7421         0.014371        -173.836
0.6148                 0.0206342          -69.41         0.997853        -17.8964         0.997853        -17.8964        0.0144366        -173.714
0.6201                 0.0207243        -69.6513         0.997833        -18.0507         0.997833        -18.0507        0.0145028        -173.595
0.6254                 0.0208144         -69.891         0.997813         -18.205         0.997813         -18.205        0.0145694         -173.48
0.6307                 0.0209047        -70.1291         0.997793        -18.3593         0.997793        -18.3593        0.0146366        -173.368
0.636                  0.0209952        -70.3657         0.997773        -18.5136         0.997773        -18.5136        0.0147042        -173.259
0.6413                 0.0210857        -70.6007         0.997753        -18.6679         0.997753        -18.6679        0.0147723        -173.154
0.6466                 0.0211763        -70.8342         0.997733        -18.8222         0.997733        -18.8222        0.0148409        -173.051
0.6519                 0.0212671        -71.0662         0.997713        -18.9765         0.997713        -18.9765        0.0149099        -172.952
0.6572                 0.0213579        -71.2967         0.997693        -19.1308         0.997693        -19.1308        0.0149794        -172.857
0.6625                 0.0214489        -71.5257         0.997672        -19.2851         0.997672        -19.2851        0.0150493        -172.764
0.6678                 0.0215399        -71.7533         0.997652        -19.4394         0.997652        -19.4394        0.0151196        -172.675
0.6731                 0.0216311        -71.9794         0.997632        -19.5937         0.997632        -19.5937        0.0151904        -172.589
0.6784                 0.0217223        -72.2041         0.997611         -19.748         0.997611         -19.748        0.0152616        -172.505
0.6837                 0.0218137        -72.4273         0.997591        -19.9023         0.997591        -19.9023        0.0153332        -172.425
0.689                  0.0219051        -72.6492         0.997571        -20.0566         0.997571        -20.0566        0.0154053        -172.348
0.6943                 0.0219966        -72.8697          0.99755        -20.2109          0.99755        -20.2109        0.0154777        -172.274
0.6996                 0.0220882        -73.0888          0.99753        -20.3652          0.99753        -20.3652        0.0155505        -172.204
0.7049                 0.0221799        -73.3066         0.997509        -20.5195         0.997509        -20.5195        0.0156237        -172.136
0.7102                 0.0222717         -73.523         0.997489        -20.6738         0.997489        -20.6738        0.0156973        -172.071
0.7155                 0.0223635        -73.7381         0.997468         -20.828         0.997468         -20.828        0.0157713        -172.008
0.7208                 0.0224554        -73.9519         0.997448        -20.9823         0.997448        -20.9823        0.0158456        -171.949
0.7261                 0.0225474        -74.1644         0.997427        -21.1366         0.997427        -21.1366        0.0159203        -171.893
0.7314                 0.0226395        -74.3756         0.997406        -21.2909         0.997406        -21.2909        0.0159953         -171.84
0.7367                 0.0227316        -74.5855         0.997386        -21.4452         0.997386        -21.4452        0.0160707        -171.789
0.742                  0.0228238        -74.7942         0.997365        -21.5995         0.997365        -21.5995        0.0161465        -171.741
0.7473                  0.022916        -75.0017         0.997344        -21.7538         0.997344        -21.7538        0.0162225        -171.696
0.7526                 0.0230084        -75.2079         0.997323        -21.9081         0.997323        -21.9081        0.0162989        -171.654
0.7579                 0.0231007        -75.4129         0.997303        -22.0624         0.997303        -22.0624        0.0163757        -171.614
0.7632                 0.0231932        -75.6167         0.997282        -22.2167         0.997282        -22.2167        0.0164527        -171.577
0.7685                 0.0232857        -75.8194         0.997261         -22.371         0.997261         -22.371        0.0165301        -171.543
0.7738                 0.0233782        -76.0208          0.99724        -22.5253          0.99724        -22.5253        0.0166077        -171.512
0.7791                 0.0234708        -76.2211         0.997219        -22.6796         0.997219        -22.6796        0.0166857        -171.483
0.7844                 0.0235635        -76.4202         0.997198        -22.8339         0.997198        -22.8339        0.0167639        -171.456
0.7897                 0.0236562        -76.6182         0.997177        -22.9882         0.997177        -22.9882        0.0168425        -171.433
0.795                  0.0237489        -76.8151         0.997156        -23.1424         0.997156        -23.1424        0.0169213        -171.411
0.8003                 0.0238417        -77.0108         0.997135        -23.2967         0.997135        -23.2967        0.0170004        -171.393
0.8056                 0.0239345        -77.2055         0.997114         -23.451         0.997114         -23.451        0.0170798        -171.376
0.8109                 0.0240274         -77.399         0.997093        -23.6053         0.997093        -23.6053        0.0171595        -171.363
0.8162                 0.0241203        -77.5915         0.997072        -23.7596         0.997072        -23.7596        0.0172394        -171.351
0.8215                 0.0242133        -77.7829         0.997051        -23.9139         0.997051        -23.9139        0.0173196        -171.342
0.8268                 0.0243063        -77.9733         0.997029        -24.0682         0.997029        -24.0682           0.0174        -171.336
0.8321                 0.0243993        -78.1626         0.997008        -24.2225         0.997008        -24.2225        0.0174807        -171.332
0.8374                 0.0244923        -78.3508         0.996987        -24.3768         0.996987        -24.3768        0.0175616         -171.33
0.8427                 0.0245854        -78.5381         0.996966        -24.5311         0.996966        -24.5311        0.0176428         -171.33
0.848                  0.0246785        -78.7243         0.996944        -24.6854         0.996944        -24.6854        0.0177242        -171.333
0.8533                 0.0247717        -78.9095         0.996923        -24.8396         0.996923        -24.8396        0.0178058        -171.338
0.8586                 0.0248648        -79.0937         0.996902        -24.9939         0.996902        -24.9939        0.0178877        -171.345
0.8639                  0.024958        -79.2769          0.99688        -25.1482          0.99688        -25.1482        0.0179698        -171.355
0.8692                 0.0250512        -79.4592         0.996859        -25.3025         0.996859        -25.3025        0.0180521        -171.366
0.8745                 0.0251445        -79.6405         0.996837        -25.4568         0.996837        -25.4568        0.0181346         -171.38
0.8798                 0.0252377        -79.8208         0.996816        -25.6111         0.996816        -25.6111        0.0182173        -171.396
0.8851                  0.025331        -80.0002         0.996794        -25.7654         0.996794        -25.7654        0.0183003        -171.414
0.8904                 0.0254243        -80.1787         0.996773        -25.9197         0.996773        -25.9197        0.0183834        -171.434
0.8957                 0.0255176        -80.3562         0.996751         -26.074         0.996751         -26.074        0.0184667        -171.457
0.901                  0.0256109        -80.5328         0.996729        -26.2283         0.996729        -26.2283        0.0185503        -171.481
0.9063                 0.0257042        -80.7085         0.996708        -26.3825         0.996708        -26.3825         0.018634        -171.507
0.9116                 0.0257976        -80.8833         0.996686        -26.5368         0.996686        -26.5368        0.0187179        -171.536
0.9169                 0.0258909        -81.0572         0.996664        -26.6911         0.996664        -26.6911        0.0188019        -171.566
0.9222                 0.0259843        -81.2302         0.996643        -26.8454         0.996643        -26.8454        0.0188862        -171.598
0.9275                 0.0260776        -81.4024         0.996621        -26.9997         0.996621        -26.9997        0.0189706        -171.633
0.9328                  0.026171        -81.5736         0.996599         -27.154         0.996599         -27.154        0.0190552        -171.669
0.9381                 0.0262644         -81.744         0.996577        -27.3083         0.996577        -27.3083          0.01914        -171.707
0.9434                 0.0263577        -81.9136         0.996555        -27.4626         0.996555        -27.4626        0.0192249        -171.747
0.9487                 0.0264511        -82.0823         0.996534        -27.6169         0.996534        -27.6169          0.01931        -171.789
0.954                  0.0265445        -82.2502         0.996512        -27.7711         0.996512        -27.7711        0.0193953        -171.832
0.9593                 0.0266379        -82.4173          0.99649        -27.9254          0.99649        -27.9254        0.0194807        -171.878
0.9646                 0.0267312        -82.5835         0.996468        -28.0797         0.996468        -28.0797        0.0195662        -171.925
0.9699                 0.0268246        -82.7489         0.996446         -28.234         0.996446         -28.234        0.0196519        -171.974
0.9752                  0.026918        -82.9136         0.996424        -28.3883         0.996424        -28.3883        0.0197378        -172.025
0.9805                 0.0270113        -83.0774         0.996402        -28.5426         0.996402        -28.5426        0.0198238        -172.077
0.9858                 0.0271047        -83.2404          0.99638        -28.6969          0.99638        -28.6969        0.0199099        -172.132
0.9911                  0.027198        -83.4027         0.996357        -28.8512         0.996357        -28.8512        0.0199961        -172.188
0.9964                 0.0272914        -83.5642         0.996335        -29.0054         0.996335        -29.0054        0.0200825        -172.245