! TOUCHSTONE file generated by CST MICROWAVE STUDIO
! Date and time: Tue Jan  7 09:43:49 2020
! Project name: OSHPark_FR408_Transition2.cst
! Parameters = {GND_Plane_XMax=12.25; Cap_Disk_XOffset=0; Cap_Disk2_YCenter=-1.03; Cap_Disk_YCenter=1.03; Cap_Disk_XCenter=7.39; Cap_Disk_Radius=0.5; BottomSupport_Left_YMax=4.76; BottomSupport_Left_YMin=3.74; BottomSupport_Right_YMax=-3.74; BottomSupport_Right_YMin=-4.76; BottomSupport_XMax=11.64; BottomSupport_XMin=6.89; BottomSupport_ZMax=-1.64084; BottomSupport_ZMin=-3.58; Cu1_Thickness=0.03556; Cu2_Thickness=0.01778; Fr408Core_Thickness=1.1938; GND_Plane_Offset=2.9; PCBThickness=1.6256; Prepreg1_Zmin=-0.20574; Prepreg_Thickness=0.17018; RFTraceYMax=0.17145; RFTrace_XMax=15; RFTrace_XMin=11.46; RFTrace_YMin=-0.17145; SMA_CenterCond_Inner_XMax=11.64; SMA_CenterCond_Radius=0.6; SMA_Dielectric_InnerRadius=0.6; SMA_Dielectric_OuterRadius=2; SMA_Dielectric_XMax=5.62; SMA_Dielectric_XMin=0; SMA_Dielectric_YCenter=0; SMA_Dielectric_ZCenter=0; SMA_Footprint_Center_XMax=12.49; SMA_Footprint_Center_XMin=7.74; SMA_Footprint_Center_YMax=0.75; SMA_Footprint_Center_YMin=-0.75; SMA_OuterCond_InnerRadius=2; SMA_OuterCond_OuterRadius=3; SMA_OuterCond_XMax=6.89; SMA_XMax=6.67; SMA_XMin=0; SMA_YCenter=0; SMA_ZCenter=0; TopSupport_ZMax=1.02; TopSupport_ZMin=0; Via1_XCenter=7.5; Via1_YCenter=-4.25; Via2_XCenter=8.75; Via2_YCenter=-4.25; Via3_XCenter=10; Via3_YCenter=-4.25; Via4_XCenter=11.25; Via4_YCenter=-4.25; Via5_XCenter=7.5; Via5_YCenter=4.25; Via6_XCenter=8.75; Via6_YCenter=4.25; Via7_XCenter=10; Via7_YCenter=4.25; Via8_XCenter=11.25; Via8_YCenter=4.25; ViaInnerRadius=0; ViaOuterRadius=0.381}
! Header version: 2015
! Port assignment regex: !\s*Touchstone port\s*([0-9]+)\s*=\s*CST MWS port\s*([0-9]+)\s*\(\"(.*)\"\)(\s*mode\s*([0-9]+))?.*
! Touchstone port assignment:
! Touchstone port 1 = CST MWS port 1 ("")
! Touchstone port 2 = CST MWS port 2 ("")
# GHz S MA R 50
0                     0.00946241               0         0.999969               0         0.999969               0       0.00946192             180
0.0053                 0.0107406        -28.0983         0.999929       -0.159018         0.999929       -0.159018         0.010864         150.174
0.0106                 0.0107677        -28.7808          0.99994       -0.305166          0.99994       -0.305166        0.0108398         150.569
0.0159                 0.0107825        -29.0881         0.999922       -0.455213         0.999922       -0.455213         0.010817         150.556
0.0212                 0.0107918        -29.3225         0.999903       -0.606107         0.999903       -0.606107        0.0108018         150.476
0.0265                 0.0107994        -29.5283         0.999884       -0.757318         0.999884       -0.757318        0.0107908         150.374
0.0318                 0.0108045        -29.7248         0.999865       -0.908685         0.999865       -0.908685        0.0107804         150.258
0.0371                   0.01081        -29.9119         0.999847        -1.06014         0.999847        -1.06014         0.010772         150.137
0.0424                 0.0108183        -30.0857         0.999828        -1.21164         0.999828        -1.21164        0.0107676         150.022
0.0477                 0.0108249        -30.2605          0.99981        -1.36318          0.99981        -1.36318        0.0107623         149.899
0.053                  0.0108302        -30.4371         0.999792        -1.51475         0.999792        -1.51475         0.010756         149.772
0.0583                 0.0108335        -30.6171         0.999774        -1.66633         0.999774        -1.66633        0.0107482         149.639
0.0636                 0.0108372        -30.7946         0.999756        -1.81793         0.999756        -1.81793         0.010741         149.506
0.0689                 0.0108412        -30.9701         0.999738        -1.96954         0.999738        -1.96954        0.0107343         149.374
0.0742                 0.0108451        -31.1448          0.99972        -2.12115          0.99972        -2.12115        0.0107276         149.241
0.0795                 0.0108488        -31.3194         0.999702        -2.27277         0.999702        -2.27277        0.0107209         149.107
0.0848                 0.0108523        -31.4943         0.999683         -2.4244         0.999683         -2.4244         0.010714         148.973
0.0901                 0.0108556        -31.6689         0.999665        -2.57603         0.999665        -2.57603        0.0107071         148.838
0.0954                 0.0108589        -31.8434         0.999647        -2.72766         0.999647        -2.72766        0.0107001         148.702
0.1007                  0.010862        -32.0178         0.999629        -2.87929         0.999629        -2.87929        0.0106931         148.567
0.106                  0.0108651        -32.1923         0.999611        -3.03093         0.999611        -3.03093         0.010686         148.431
0.1113                  0.010868        -32.3668         0.999593        -3.18257         0.999593        -3.18257        0.0106787         148.294
0.1166                 0.0108708        -32.5414         0.999575        -3.33421         0.999575        -3.33421        0.0106714         148.157
0.1219                 0.0108735         -32.716         0.999557        -3.48585         0.999557        -3.48585        0.0106641          148.02
0.1272                 0.0108761        -32.8908         0.999539        -3.63749         0.999539        -3.63749        0.0106566         147.883
0.1325                 0.0108786        -33.0656         0.999521        -3.78913         0.999521        -3.78913         0.010649         147.745
0.1378                  0.010881        -33.2406         0.999503        -3.94077         0.999503        -3.94077        0.0106414         147.607
0.1431                 0.0108833        -33.4156         0.999485        -4.09242         0.999485        -4.09242        0.0106336         147.469
0.1484                 0.0108855        -33.5909         0.999466        -4.24406         0.999466        -4.24406        0.0106258          147.33
0.1537                 0.0108877        -33.7662         0.999448         -4.3957         0.999448         -4.3957        0.0106178         147.192
0.159                  0.0108897        -33.9417          0.99943        -4.54735          0.99943        -4.54735        0.0106098         147.053
0.1643                 0.0108917        -34.1173         0.999412        -4.69899         0.999412        -4.69899        0.0106016         146.914
0.1696                 0.0108935         -34.293         0.999394        -4.85064         0.999394        -4.85064        0.0105934         146.774
0.1749                 0.0108953         -34.469         0.999376        -5.00228         0.999376        -5.00228        0.0105851         146.635
0.1802                 0.0108969        -34.6451         0.999358        -5.15393         0.999358        -5.15393        0.0105766         146.495
0.1855                 0.0108985        -34.8213          0.99934        -5.30557          0.99934        -5.30557        0.0105681         146.355
0.1908                    0.0109        -34.9977         0.999321        -5.45721         0.999321        -5.45721        0.0105595         146.214
0.1961                 0.0109014        -35.1742         0.999303        -5.60886         0.999303        -5.60886        0.0105507         146.074
0.2014                 0.0109028        -35.3509         0.999285         -5.7605         0.999285         -5.7605        0.0105419         145.933
0.2067                  0.010904        -35.5278         0.999267        -5.91214         0.999267        -5.91214        0.0105329         145.792
0.212                  0.0109051        -35.7048         0.999249        -6.06379         0.999249        -6.06379        0.0105239         145.651
0.2173                 0.0109062         -35.882          0.99923        -6.21543          0.99923        -6.21543        0.0105148          145.51
0.2226                 0.0109072        -36.0593         0.999212        -6.36707         0.999212        -6.36707        0.0105055         145.368
0.2279                 0.0109081        -36.2369         0.999194        -6.51872         0.999194        -6.51872        0.0104962         145.227
0.2332                 0.0109089        -36.4146         0.999176        -6.67036         0.999176        -6.67036        0.0104868         145.085
0.2385                 0.0109096        -36.5925         0.999158          -6.822         0.999158          -6.822        0.0104772         144.942
0.2438                 0.0109102        -36.7704         0.999139        -6.97364         0.999139        -6.97364        0.0104676           144.8
0.2491                 0.0109107        -36.9486         0.999121        -7.12528         0.999121        -7.12528        0.0104579         144.657
0.2544                 0.0109112         -37.127         0.999103        -7.27692         0.999103        -7.27692         0.010448         144.515
0.2597                 0.0109115        -37.3055         0.999085        -7.42856         0.999085        -7.42856        0.0104381         144.372
0.265                  0.0109118        -37.4842         0.999066         -7.5802         0.999066         -7.5802         0.010428         144.228
0.2703                  0.010912         -37.663         0.999048        -7.73184         0.999048        -7.73184        0.0104179         144.085
0.2756                 0.0109121        -37.8421          0.99903        -7.88348          0.99903        -7.88348        0.0104077         143.941
0.2809                 0.0109121        -38.0213         0.999011        -8.03512         0.999011        -8.03512        0.0103973         143.797
0.2862                 0.0109121        -38.2006         0.998993        -8.18676         0.998993        -8.18676        0.0103869         143.653
0.2915                 0.0109119        -38.3802         0.998975         -8.3384         0.998975         -8.3384        0.0103763         143.509
0.2968                 0.0109117        -38.5598         0.998957        -8.49004         0.998957        -8.49004        0.0103657         143.364
0.3021                 0.0109114        -38.7397         0.998938        -8.64168         0.998938        -8.64168         0.010355          143.22
0.3074                 0.0109109        -38.9197          0.99892        -8.79331          0.99892        -8.79331        0.0103441         143.075
0.3127                 0.0109104        -39.0999         0.998902        -8.94495         0.998902        -8.94495        0.0103332          142.93
0.318                  0.0109099        -39.2803         0.998883        -9.09659         0.998883        -9.09659        0.0103222         142.784
0.3233                 0.0109092        -39.4607         0.998865        -9.24822         0.998865        -9.24822         0.010311         142.639
0.3286                 0.0109085        -39.6414         0.998846        -9.39986         0.998846        -9.39986        0.0102998         142.493
0.3339                 0.0109076        -39.8223         0.998828        -9.55149         0.998828        -9.55149        0.0102885         142.347
0.3392                 0.0109067        -40.0033          0.99881        -9.70313          0.99881        -9.70313         0.010277         142.201
0.3445                 0.0109057        -40.1845         0.998791        -9.85476         0.998791        -9.85476        0.0102655         142.054
0.3498                 0.0109046        -40.3658         0.998773        -10.0064         0.998773        -10.0064        0.0102539         141.907
0.3551                 0.0109034        -40.5472         0.998754         -10.158         0.998754         -10.158        0.0102421         141.761
0.3604                 0.0109021        -40.7289         0.998736        -10.3097         0.998736        -10.3097        0.0102303         141.613
0.3657                 0.0109008        -40.9108         0.998718        -10.4613         0.998718        -10.4613        0.0102184         141.466
0.371                  0.0108993        -41.0928         0.998699        -10.6129         0.998699        -10.6129        0.0102063         141.318
0.3763                 0.0108978        -41.2749         0.998681        -10.7646         0.998681        -10.7646        0.0101942         141.171
0.3816                 0.0108962        -41.4572         0.998662        -10.9162         0.998662        -10.9162         0.010182         141.023
0.3869                 0.0108945        -41.6397         0.998644        -11.0678         0.998644        -11.0678        0.0101697         140.874
0.3922                 0.0108927        -41.8223         0.998625        -11.2195         0.998625        -11.2195        0.0101573         140.726
0.3975                 0.0108909        -42.0051         0.998607        -11.3711         0.998607        -11.3711        0.0101447         140.577
0.4028                 0.0108889         -42.188         0.998588        -11.5227         0.998588        -11.5227        0.0101321         140.428
0.4081                 0.0108869        -42.3711          0.99857        -11.6743          0.99857        -11.6743        0.0101194         140.279
0.4134                 0.0108848        -42.5544         0.998551         -11.826         0.998551         -11.826        0.0101066         140.129
0.4187                 0.0108826        -42.7379         0.998533        -11.9776         0.998533        -11.9776        0.0100937         139.979
0.424                  0.0108803        -42.9215         0.998514        -12.1292         0.998514        -12.1292        0.0100807          139.83
0.4293                 0.0108779        -43.1052         0.998496        -12.2809         0.998496        -12.2809        0.0100676         139.679
0.4346                 0.0108754        -43.2891         0.998477        -12.4325         0.998477        -12.4325        0.0100544         139.529
0.4399                 0.0108729        -43.4731         0.998458        -12.5841         0.998458        -12.5841        0.0100412         139.378
0.4452                 0.0108703        -43.6574          0.99844        -12.7357          0.99844        -12.7357        0.0100278         139.227
0.4505                 0.0108675        -43.8418         0.998421        -12.8874         0.998421        -12.8874        0.0100143         139.076
0.4558                 0.0108647        -44.0263         0.998403         -13.039         0.998403         -13.039        0.0100007         138.925
0.4611                 0.0108618        -44.2109         0.998384        -13.1906         0.998384        -13.1906       0.00998705         138.773
0.4664                 0.0108589        -44.3958         0.998365        -13.3422         0.998365        -13.3422       0.00997328         138.621
0.4717                 0.0108558        -44.5808         0.998347        -13.4939         0.998347        -13.4939       0.00995941         138.469
0.477                  0.0108527         -44.766         0.998328        -13.6455         0.998328        -13.6455       0.00994545         138.316
0.4823                 0.0108494        -44.9513         0.998309        -13.7971         0.998309        -13.7971       0.00993141         138.164
0.4876                 0.0108461        -45.1367         0.998291        -13.9487         0.998291        -13.9487       0.00991727         138.011
0.4929                 0.0108427        -45.3224         0.998272        -14.1003         0.998272        -14.1003       0.00990303         137.857
0.4982                 0.0108392        -45.5081         0.998253         -14.252         0.998253         -14.252       0.00988869         137.704
0.5035                 0.0108356        -45.6941         0.998235        -14.4036         0.998235        -14.4036       0.00987425          137.55
0.5088                  0.010832        -45.8801         0.998216        -14.5552         0.998216        -14.5552       0.00985974         137.396
0.5141                 0.0108283        -46.0664         0.998197        -14.7068         0.998197        -14.7068       0.00984513         137.242
0.5194                 0.0108244        -46.2528         0.998179        -14.8585         0.998179        -14.8585       0.00983042         137.087
0.5247                 0.0108205        -46.4393          0.99816        -15.0101          0.99816        -15.0101       0.00981561         136.932
0.53                   0.0108165         -46.626         0.998141        -15.1617         0.998141        -15.1617       0.00980071         136.777
0.5353                 0.0108124        -46.8128         0.998122        -15.3133         0.998122        -15.3133       0.00978573         136.622
0.5406                 0.0108083        -46.9998         0.998104        -15.4649         0.998104        -15.4649       0.00977066         136.466
0.5459                  0.010804         -47.187         0.998085        -15.6165         0.998085        -15.6165       0.00975548          136.31
0.5512                 0.0107996        -47.3743         0.998066        -15.7682         0.998066        -15.7682       0.00974021         136.154
0.5565                 0.0107952        -47.5618         0.998047        -15.9198         0.998047        -15.9198       0.00972484         135.997
0.5618                 0.0107907        -47.7494         0.998029        -16.0714         0.998029        -16.0714        0.0097094          135.84
0.5671                 0.0107861        -47.9371          0.99801         -16.223          0.99801         -16.223       0.00969387         135.683
0.5724                 0.0107814         -48.125         0.997991        -16.3746         0.997991        -16.3746       0.00967823         135.526
0.5777                 0.0107767        -48.3131         0.997972        -16.5263         0.997972        -16.5263        0.0096625         135.368
0.583                  0.0107718        -48.5013         0.997953        -16.6779         0.997953        -16.6779       0.00964668          135.21
0.5883                 0.0107669        -48.6896         0.997934        -16.8295         0.997934        -16.8295       0.00963078         135.052
0.5936                 0.0107618        -48.8781         0.997915        -16.9811         0.997915        -16.9811       0.00961479         134.893
0.5989                 0.0107567        -49.0668         0.997897        -17.1327         0.997897        -17.1327        0.0095987         134.734
0.6042                 0.0107515        -49.2556         0.997878        -17.2843         0.997878        -17.2843       0.00958252         134.575
0.6095                 0.0107462        -49.4446         0.997859        -17.4359         0.997859        -17.4359       0.00956624         134.415
0.6148                 0.0107409        -49.6337          0.99784        -17.5876          0.99784        -17.5876       0.00954989         134.255
0.6201                 0.0107354        -49.8229         0.997821        -17.7392         0.997821        -17.7392       0.00953345         134.095
0.6254                 0.0107299        -50.0123         0.997802        -17.8908         0.997802        -17.8908       0.00951691         133.935
0.6307                 0.0107243        -50.2019         0.997783        -18.0424         0.997783        -18.0424       0.00950028         133.774
0.636                  0.0107186        -50.3916         0.997764         -18.194         0.997764         -18.194       0.00948356         133.613
0.6413                 0.0107128        -50.5814         0.997745        -18.3456         0.997745        -18.3456       0.00946676         133.451
0.6466                 0.0107069        -50.7714         0.997726        -18.4972         0.997726        -18.4972       0.00944988         133.289
0.6519                 0.0107009        -50.9615         0.997707        -18.6488         0.997707        -18.6488       0.00943289         133.127
0.6572                 0.0106949        -51.1519         0.997688        -18.8004         0.997688        -18.8004       0.00941582         132.965
0.6625                 0.0106887        -51.3423         0.997669        -18.9521         0.997669        -18.9521       0.00939866         132.802
0.6678                 0.0106825        -51.5329          0.99765        -19.1037          0.99765        -19.1037       0.00938142         132.639
0.6731                 0.0106762        -51.7236         0.997631        -19.2553         0.997631        -19.2553        0.0093641         132.475
0.6784                 0.0106698        -51.9145         0.997612        -19.4069         0.997612        -19.4069       0.00934667         132.312
0.6837                 0.0106633        -52.1055         0.997593        -19.5585         0.997593        -19.5585       0.00932916         132.147
0.689                  0.0106568        -52.2967         0.997574        -19.7101         0.997574        -19.7101       0.00931156         131.983
0.6943                 0.0106501         -52.488         0.997555        -19.8617         0.997555        -19.8617       0.00929389         131.818
0.6996                 0.0106434        -52.6795         0.997536        -20.0133         0.997536        -20.0133       0.00927614         131.653
0.7049                 0.0106366        -52.8711         0.997517        -20.1649         0.997517        -20.1649       0.00925828         131.487
0.7102                 0.0106297        -53.0629         0.997498        -20.3165         0.997498        -20.3165       0.00924034         131.321
0.7155                 0.0106227        -53.2548         0.997479        -20.4681         0.997479        -20.4681       0.00922231         131.155
0.7208                 0.0106156        -53.4468         0.997459        -20.6197         0.997459        -20.6197       0.00920421         130.988
0.7261                 0.0106085         -53.639          0.99744        -20.7713          0.99744        -20.7713       0.00918602         130.821
0.7314                 0.0106012        -53.8314         0.997421        -20.9229         0.997421        -20.9229       0.00916774         130.654
0.7367                 0.0105939        -54.0239         0.997402        -21.0745         0.997402        -21.0745       0.00914937         130.486
0.742                  0.0105865        -54.2166         0.997383        -21.2261         0.997383        -21.2261       0.00913092         130.318
0.7473                  0.010579        -54.4093         0.997364        -21.3778         0.997364        -21.3778        0.0091124         130.149
0.7526                 0.0105714        -54.6023         0.997344        -21.5294         0.997344        -21.5294       0.00909379          129.98
0.7579                 0.0105637        -54.7954         0.997325         -21.681         0.997325         -21.681       0.00907509         129.811
0.7632                 0.0105559        -54.9886         0.997306        -21.8326         0.997306        -21.8326        0.0090563         129.641
0.7685                 0.0105481         -55.182         0.997287        -21.9842         0.997287        -21.9842       0.00903743         129.471
0.7738                 0.0105402        -55.3755         0.997268        -22.1358         0.997268        -22.1358        0.0090185           129.3
0.7791                 0.0105322        -55.5692         0.997248        -22.2874         0.997248        -22.2874       0.00899948         129.129
0.7844                 0.0105241         -55.763         0.997229         -22.439         0.997229         -22.439       0.00898036         128.958
0.7897                 0.0105159         -55.957          0.99721        -22.5906          0.99721        -22.5906       0.00896116         128.786
0.795                  0.0105076        -56.1511          0.99719        -22.7422          0.99719        -22.7422       0.00894188         128.614
0.8003                 0.0104992        -56.3454         0.997171        -22.8938         0.997171        -22.8938       0.00892253         128.441
0.8056                 0.0104908        -56.5397         0.997152        -23.0454         0.997152        -23.0454        0.0089031         128.268
0.8109                 0.0104823        -56.7343         0.997133         -23.197         0.997133         -23.197       0.00888358         128.095
0.8162                 0.0104737        -56.9291         0.997113        -23.3486         0.997113        -23.3486       0.00886397         127.921
0.8215                  0.010465        -57.1239         0.997094        -23.5002         0.997094        -23.5002       0.00884429         127.746
0.8268                 0.0104562        -57.3189         0.997075        -23.6518         0.997075        -23.6518       0.00882454         127.572
0.8321                 0.0104473         -57.514         0.997055        -23.8034         0.997055        -23.8034       0.00880471         127.396
0.8374                 0.0104384        -57.7093         0.997036         -23.955         0.997036         -23.955       0.00878478         127.221
0.8427                 0.0104293        -57.9048         0.997016        -24.1066         0.997016        -24.1066       0.00876478         127.045
0.848                  0.0104202        -58.1004         0.996997        -24.2582         0.996997        -24.2582        0.0087447         126.868
0.8533                  0.010411        -58.2961         0.996978        -24.4098         0.996978        -24.4098       0.00872455         126.691
0.8586                 0.0104017         -58.492         0.996958        -24.5613         0.996958        -24.5613       0.00870433         126.513
0.8639                 0.0103923        -58.6881         0.996939        -24.7129         0.996939        -24.7129       0.00868401         126.335
0.8692                 0.0103828        -58.8843         0.996919        -24.8645         0.996919        -24.8645       0.00866362         126.157
0.8745                 0.0103733        -59.0807           0.9969        -25.0161           0.9969        -25.0161       0.00864315         125.978
0.8798                 0.0103637        -59.2771          0.99688        -25.1677          0.99688        -25.1677       0.00862261         125.798
0.8851                 0.0103539        -59.4737         0.996861        -25.3193         0.996861        -25.3193         0.008602         125.618
0.8904                 0.0103441        -59.6705         0.996841        -25.4709         0.996841        -25.4709        0.0085813         125.438
0.8957                 0.0103342        -59.8675         0.996822        -25.6225         0.996822        -25.6225       0.00856052         125.257
0.901                  0.0103243        -60.0646         0.996802        -25.7741         0.996802        -25.7741       0.00853966         125.075
0.9063                 0.0103142        -60.2618         0.996783        -25.9257         0.996783        -25.9257       0.00851875         124.893
0.9116                 0.0103041        -60.4592         0.996763        -26.0773         0.996763        -26.0773       0.00849776         124.711
0.9169                 0.0102938        -60.6567         0.996744        -26.2289         0.996744        -26.2289       0.00847668         124.528
0.9222                 0.0102835        -60.8544         0.996724        -26.3805         0.996724        -26.3805       0.00845553         124.344
0.9275                 0.0102731        -61.0523         0.996704        -26.5321         0.996704        -26.5321        0.0084343          124.16
0.9328                 0.0102626        -61.2503         0.996685        -26.6837         0.996685        -26.6837       0.00841301         123.975
0.9381                  0.010252        -61.4484         0.996665        -26.8353         0.996665        -26.8353       0.00839165          123.79
0.9434                 0.0102414        -61.6467         0.996646        -26.9868         0.996646        -26.9868        0.0083702         123.605
0.9487                 0.0102306        -61.8452         0.996626        -27.1384         0.996626        -27.1384       0.00834868         123.418
0.954                  0.0102198        -62.0438         0.996606          -27.29         0.996606          -27.29       0.00832708         123.231
0.9593                 0.0102089        -62.2426         0.996587        -27.4416         0.996587        -27.4416       0.00830543         123.044
0.9646                 0.0101979        -62.4414         0.996567        -27.5932         0.996567        -27.5932        0.0082837         122.856
0.9699                 0.0101868        -62.6405         0.996547        -27.7448         0.996547        -27.7448        0.0082619         122.667
0.9752                 0.0101756        -62.8398         0.996528        -27.8964         0.996528        -27.8964       0.00824002         122.478
0.9805                 0.0101644        -63.0392         0.996508         -28.048         0.996508         -28.048       0.00821806         122.289
0.9858                  0.010153        -63.2387         0.996488        -28.1996         0.996488        -28.1996       0.00819606         122.098
0.9911                 0.0101416        -63.4384         0.996468        -28.3512         0.996468        -28.3512       0.00817398         121.907
0.9964                 0.0101301        -63.6382         0.996449        -28.5027         0.996449        -28.5027       0.00815182         121.716