! TOUCHSTONE file generated by CST MICROWAVE STUDIO
! Date and time: Tue Jan  7 09:43:19 2020
! Project name: OSHPark_FR408_Transition2.cst
! Parameters = {GND_Plane_XMax=12.5; Cap_Disk_XOffset=0; Cap_Disk2_YCenter=-1.03; Cap_Disk_YCenter=1.03; Cap_Disk_XCenter=7.39; Cap_Disk_Radius=0.5; BottomSupport_Left_YMax=4.76; BottomSupport_Left_YMin=3.74; BottomSupport_Right_YMax=-3.74; BottomSupport_Right_YMin=-4.76; BottomSupport_XMax=11.64; BottomSupport_XMin=6.89; BottomSupport_ZMax=-1.64084; BottomSupport_ZMin=-3.58; Cu1_Thickness=0.03556; Cu2_Thickness=0.01778; Fr408Core_Thickness=1.1938; GND_Plane_Offset=2.825; PCBThickness=1.6256; Prepreg1_Zmin=-0.20574; Prepreg_Thickness=0.17018; RFTraceYMax=0.17145; RFTrace_XMax=15; RFTrace_XMin=11.46; RFTrace_YMin=-0.17145; SMA_CenterCond_Inner_XMax=11.64; SMA_CenterCond_Radius=0.6; SMA_Dielectric_InnerRadius=0.6; SMA_Dielectric_OuterRadius=2; SMA_Dielectric_XMax=5.62; SMA_Dielectric_XMin=0; SMA_Dielectric_YCenter=0; SMA_Dielectric_ZCenter=0; SMA_Footprint_Center_XMax=12.49; SMA_Footprint_Center_XMin=7.74; SMA_Footprint_Center_YMax=0.75; SMA_Footprint_Center_YMin=-0.75; SMA_OuterCond_InnerRadius=2; SMA_OuterCond_OuterRadius=3; SMA_OuterCond_XMax=6.89; SMA_XMax=6.67; SMA_XMin=0; SMA_YCenter=0; SMA_ZCenter=0; TopSupport_ZMax=1.02; TopSupport_ZMin=0; Via1_XCenter=7.5; Via1_YCenter=-4.25; Via2_XCenter=8.75; Via2_YCenter=-4.25; Via3_XCenter=10; Via3_YCenter=-4.25; Via4_XCenter=11.25; Via4_YCenter=-4.25; Via5_XCenter=7.5; Via5_YCenter=4.25; Via6_XCenter=8.75; Via6_YCenter=4.25; Via7_XCenter=10; Via7_YCenter=4.25; Via8_XCenter=11.25; Via8_YCenter=4.25; ViaInnerRadius=0; ViaOuterRadius=0.381}
! Header version: 2015
! Port assignment regex: !\s*Touchstone port\s*([0-9]+)\s*=\s*CST MWS port\s*([0-9]+)\s*\(\"(.*)\"\)(\s*mode\s*([0-9]+))?.*
! Touchstone port assignment:
! Touchstone port 1 = CST MWS port 1 ("")
! Touchstone port 2 = CST MWS port 2 ("")
# GHz S MA R 50
0                       0.059003               0         0.946189               0         0.946189               0         0.048617               0
0.0053                0.00848563        -34.7059         0.999976       -0.160184         0.999976       -0.160184       0.00881728         142.312
0.0106                0.00848131        -34.8193         0.999961       -0.306763         0.999961       -0.306763        0.0088191         142.121
0.0159                 0.0084442        -34.5863         0.999946       -0.456818         0.999946       -0.456818       0.00886028          141.63
0.0212                0.00839827        -34.2684         0.999932       -0.607742         0.999932       -0.607742        0.0089106         141.062
0.0265                0.00834876        -33.9145         0.999917       -0.759014         0.999917       -0.759014       0.00896446         140.465
0.0318                0.00829836        -33.5362         0.999903       -0.910461         0.999903       -0.910461       0.00902087         139.858
0.0371                 0.0082471        -33.1456         0.999888        -1.06201         0.999888        -1.06201       0.00907835         139.245
0.0424                0.00819453        -32.7513         0.999873        -1.21361         0.999873        -1.21361       0.00913574         138.623
0.0477                 0.0081426        -32.3444         0.999859        -1.36526         0.999859        -1.36526       0.00919442         138.004
0.053                 0.00809143        -31.9264         0.999844        -1.51694         0.999844        -1.51694       0.00925421          137.39
0.0583                0.00804129        -31.4964          0.99983        -1.66864          0.99983        -1.66864       0.00931515         136.782
0.0636                0.00799139        -31.0594         0.999815        -1.82036         0.999815        -1.82036       0.00937642         136.177
0.0689                 0.0079418        -30.6157           0.9998        -1.97208           0.9998        -1.97208       0.00943798         135.574
0.0742                0.00789271        -30.1647         0.999785        -2.12382         0.999785        -2.12382       0.00949996         134.975
0.0795                0.00784423        -29.7061         0.999771        -2.27557         0.999771        -2.27557       0.00956237          134.38
0.0848                0.00779645        -29.2399         0.999756        -2.42732         0.999756        -2.42732       0.00962526          133.79
0.0901                0.00774928        -28.7665         0.999741        -2.57907         0.999741        -2.57907       0.00968851         133.204
0.0954                0.00770275        -28.2861         0.999726        -2.73083         0.999726        -2.73083       0.00975211         132.621
0.1007                0.00765691        -27.7985         0.999711         -2.8826         0.999711         -2.8826       0.00981607         132.043
0.106                 0.00761176        -27.3037         0.999696        -3.03436         0.999696        -3.03436       0.00988037         131.468
0.1113                0.00756737        -26.8017         0.999681        -3.18614         0.999681        -3.18614       0.00994502         130.898
0.1166                 0.0075237        -26.2927         0.999666        -3.33791         0.999666        -3.33791          0.01001         130.332
0.1219                0.00748078        -25.7766         0.999651        -3.48968         0.999651        -3.48968        0.0100753          129.77
0.1272                0.00743862        -25.2535         0.999636        -3.64146         0.999636        -3.64146        0.0101408         129.212
0.1325                0.00739726        -24.7234         0.999621        -3.79324         0.999621        -3.79324        0.0102067         128.657
0.1378                0.00735672        -24.1862         0.999606        -3.94501         0.999606        -3.94501        0.0102729         128.107
0.1431                0.00731699        -23.6421          0.99959         -4.0968          0.99959         -4.0968        0.0103394          127.56
0.1484                0.00727808        -23.0912         0.999575        -4.24858         0.999575        -4.24858        0.0104061         127.017
0.1537                0.00724003        -22.5333          0.99956        -4.40036          0.99956        -4.40036        0.0104731         126.478
0.159                 0.00720284        -21.9686         0.999545        -4.55214         0.999545        -4.55214        0.0105404         125.942
0.1643                0.00716656        -21.3971         0.999529        -4.70393         0.999529        -4.70393        0.0106079         125.411
0.1696                0.00713116        -20.8189         0.999514        -4.85571         0.999514        -4.85571        0.0106757         124.882
0.1749                0.00709667         -20.234         0.999498         -5.0075         0.999498         -5.0075        0.0107437         124.357
0.1802                 0.0070631        -19.6427         0.999483        -5.15928         0.999483        -5.15928         0.010812         123.836
0.1855                0.00703047        -19.0448         0.999468        -5.31107         0.999468        -5.31107        0.0108805         123.318
0.1908                0.00699882        -18.4405         0.999452        -5.46286         0.999452        -5.46286        0.0109493         122.803
0.1961                0.00696813        -17.8299         0.999436        -5.61465         0.999436        -5.61465        0.0110183         122.291
0.2014                0.00693841        -17.2132         0.999421        -5.76644         0.999421        -5.76644        0.0110875         121.783
0.2067                 0.0069097        -16.5904         0.999405        -5.91822         0.999405        -5.91822        0.0111569         121.278
0.212                   0.006882        -15.9617          0.99939        -6.07001          0.99939        -6.07001        0.0112266         120.776
0.2173                0.00685534        -15.3272         0.999374         -6.2218         0.999374         -6.2218        0.0112964         120.278
0.2226                0.00682971         -14.687         0.999358        -6.37359         0.999358        -6.37359        0.0113665         119.782
0.2279                0.00680513        -14.0414         0.999342        -6.52539         0.999342        -6.52539        0.0114368         119.289
0.2332                0.00678161        -13.3904         0.999327        -6.67718         0.999327        -6.67718        0.0115073           118.8
0.2385                0.00675917        -12.7342         0.999311        -6.82897         0.999311        -6.82897        0.0115779         118.313
0.2438                0.00673784        -12.0731         0.999295        -6.98076         0.999295        -6.98076        0.0116488         117.829
0.2491                 0.0067176        -11.4072         0.999279        -7.13255         0.999279        -7.13255        0.0117199         117.348
0.2544                0.00669847        -10.7367         0.999263        -7.28434         0.999263        -7.28434        0.0117911         116.869
0.2597                0.00668046        -10.0618         0.999247        -7.43613         0.999247        -7.43613        0.0118626         116.394
0.265                 0.00666359        -9.38269         0.999231        -7.58793         0.999231        -7.58793        0.0119342         115.921
0.2703                0.00664787        -8.69967         0.999215        -7.73972         0.999215        -7.73972         0.012006         115.451
0.2756                 0.0066333        -8.01293         0.999199        -7.89151         0.999199        -7.89151        0.0120779         114.983
0.2809                0.00661989        -7.32273         0.999183        -8.04331         0.999183        -8.04331        0.0121501         114.518
0.2862                0.00660765         -6.6293         0.999167         -8.1951         0.999167         -8.1951        0.0122224         114.055
0.2915                0.00659659        -5.93289          0.99915        -8.34689          0.99915        -8.34689        0.0122949         113.595
0.2968                0.00658673        -5.23376         0.999134        -8.49869         0.999134        -8.49869        0.0123675         113.138
0.3021                0.00657806        -4.53217         0.999118        -8.65048         0.999118        -8.65048        0.0124403         112.682
0.3074                0.00657058         -3.8284         0.999102        -8.80228         0.999102        -8.80228        0.0125133          112.23
0.3127                 0.0065643        -3.12272         0.999085        -8.95407         0.999085        -8.95407        0.0125864         111.779
0.318                 0.00655923        -2.41541         0.999069        -9.10586         0.999069        -9.10586        0.0126597         111.331
0.3233                 0.0065554        -1.70675         0.999052        -9.25766         0.999052        -9.25766        0.0127331         110.885
0.3286                0.00655277       -0.997029         0.999036        -9.40945         0.999036        -9.40945        0.0128067         110.441
0.3339                0.00655136       -0.286528         0.999019        -9.56125         0.999019        -9.56125        0.0128805             110
0.3392                0.00655118        0.424462         0.999003        -9.71304         0.999003        -9.71304        0.0129543         109.561
0.3445                0.00655221         1.13565         0.998986        -9.86484         0.998986        -9.86484        0.0130284         109.124
0.3498                0.00655449         1.84673          0.99897        -10.0166          0.99897        -10.0166        0.0131025         108.689
0.3551                0.00655799         2.55743         0.998953        -10.1684         0.998953        -10.1684        0.0131768         108.256
0.3604                0.00656271         3.26746         0.998937        -10.3202         0.998937        -10.3202        0.0132513         107.825
0.3657                0.00656865         3.97653          0.99892         -10.472          0.99892         -10.472        0.0133259         107.396
0.371                 0.00657582         4.68435         0.998903        -10.6238         0.998903        -10.6238        0.0134006         106.969
0.3763                0.00658422         5.39062         0.998886        -10.7756         0.998886        -10.7756        0.0134754         106.544
0.3816                0.00659384         6.09507          0.99887        -10.9274          0.99887        -10.9274        0.0135504         106.121
0.3869                0.00660466         6.79744         0.998853        -11.0792         0.998853        -11.0792        0.0136255         105.699
0.3922                0.00661669         7.49746         0.998836         -11.231         0.998836         -11.231        0.0137007          105.28
0.3975                0.00662993         8.19484         0.998819        -11.3828         0.998819        -11.3828        0.0137761         104.863
0.4028                0.00664438          8.8893         0.998802        -11.5346         0.998802        -11.5346        0.0138516         104.447
0.4081                0.00666002         9.58062         0.998785        -11.6864         0.998785        -11.6864        0.0139272         104.033
0.4134                0.00667684         10.2686         0.998768        -11.8382         0.998768        -11.8382        0.0140029         103.621
0.4187                0.00669483         10.9529         0.998751          -11.99         0.998751          -11.99        0.0140788         103.211
0.424                 0.00671401         11.6333         0.998734        -12.1418         0.998734        -12.1418        0.0141547         102.802
0.4293                0.00673435         12.3096         0.998717        -12.2936         0.998717        -12.2936        0.0142308         102.395
0.4346                0.00675585         12.9816           0.9987        -12.4454           0.9987        -12.4454         0.014307          101.99
0.4399                0.00677849          13.649         0.998682        -12.5972         0.998682        -12.5972        0.0143834         101.586
0.4452                0.00680227         14.3117         0.998665         -12.749         0.998665         -12.749        0.0144598         101.184
0.4505                0.00682717         14.9695         0.998648        -12.9008         0.998648        -12.9008        0.0145363         100.783
0.4558                 0.0068532         15.6222         0.998631        -13.0526         0.998631        -13.0526         0.014613         100.384
0.4611                0.00688033         16.2696         0.998613        -13.2044         0.998613        -13.2044        0.0146898         99.9867
0.4664                0.00690855         16.9115         0.998596        -13.3562         0.998596        -13.3562        0.0147666         99.5908
0.4717                0.00693785         17.5478         0.998578         -13.508         0.998578         -13.508        0.0148436         99.1964
0.477                 0.00696822         18.1784         0.998561        -13.6598         0.998561        -13.6598        0.0149207         98.8035
0.4823                0.00699967          18.803         0.998543        -13.8116         0.998543        -13.8116        0.0149979          98.412
0.4876                0.00703216         19.4215         0.998526        -13.9634         0.998526        -13.9634        0.0150752          98.022
0.4929                0.00706567          20.034         0.998508        -14.1152         0.998508        -14.1152        0.0151526         97.6334
0.4982                 0.0071002         20.6402         0.998491         -14.267         0.998491         -14.267        0.0152301         97.2461
0.5035                0.00713574           21.24         0.998473        -14.4187         0.998473        -14.4187        0.0153077         96.8603
0.5088                 0.0071723         21.8333         0.998456        -14.5705         0.998456        -14.5705        0.0153854         96.4758
0.5141                0.00720983         22.4201         0.998438        -14.7223         0.998438        -14.7223        0.0154633         96.0927
0.5194                0.00724832         23.0003          0.99842        -14.8741          0.99842        -14.8741        0.0155412         95.7109
0.5247                0.00728776         23.5738         0.998402        -15.0259         0.998402        -15.0259        0.0156192         95.3303
0.53                  0.00732815         24.1405         0.998385        -15.1777         0.998385        -15.1777        0.0156973         94.9511
0.5353                0.00736948         24.7004         0.998367        -15.3295         0.998367        -15.3295        0.0157755         94.5732
0.5406                0.00741172         25.2534         0.998349        -15.4813         0.998349        -15.4813        0.0158538         94.1965
0.5459                0.00745485         25.7996         0.998331        -15.6331         0.998331        -15.6331        0.0159322          93.821
0.5512                0.00749887         26.3389         0.998313        -15.7849         0.998313        -15.7849        0.0160107         93.4467
0.5565                0.00754377         26.8712         0.998295        -15.9367         0.998295        -15.9367        0.0160893         93.0736
0.5618                0.00758954         27.3965         0.998277        -16.0885         0.998277        -16.0885        0.0161679         92.7018
0.5671                0.00763615         27.9149         0.998259        -16.2403         0.998259        -16.2403        0.0162467         92.3311
0.5724                0.00768359         28.4263         0.998241        -16.3921         0.998241        -16.3921        0.0163256         91.9616
0.5777                0.00773185         28.9308         0.998223        -16.5439         0.998223        -16.5439        0.0164045         91.5932
0.583                 0.00778091         29.4283         0.998205        -16.6957         0.998205        -16.6957        0.0164836         91.2259
0.5883                0.00783078         29.9187         0.998186        -16.8475         0.998186        -16.8475        0.0165627         90.8598
0.5936                0.00788143         30.4023         0.998168        -16.9993         0.998168        -16.9993         0.016642         90.4947
0.5989                0.00793284          30.879          0.99815        -17.1511          0.99815        -17.1511        0.0167213         90.1308
0.6042                  0.007985         31.3488         0.998132        -17.3029         0.998132        -17.3029        0.0168007         89.7679
0.6095                0.00803791         31.8118         0.998113        -17.4547         0.998113        -17.4547        0.0168802          89.406
0.6148                0.00809156         32.2679         0.998095        -17.6065         0.998095        -17.6065        0.0169598         89.0452
0.6201                0.00814592         32.7172         0.998076        -17.7583         0.998076        -17.7583        0.0170394         88.6855
0.6254                0.00820098         33.1598         0.998058        -17.9101         0.998058        -17.9101        0.0171192         88.3267
0.6307                0.00825673         33.5957         0.998039        -18.0619         0.998039        -18.0619         0.017199          87.969
0.636                 0.00831316          34.025         0.998021        -18.2137         0.998021        -18.2137        0.0172789         87.6122
0.6413                0.00837028         34.4476         0.998002        -18.3655         0.998002        -18.3655         0.017359         87.2564
0.6466                0.00842805         34.8638         0.997984        -18.5173         0.997984        -18.5173        0.0174391         86.9017
0.6519                0.00848645         35.2734         0.997965        -18.6691         0.997965        -18.6691        0.0175192         86.5478
0.6572                 0.0085455         35.6767         0.997946        -18.8209         0.997946        -18.8209        0.0175995         86.1949
0.6625                0.00860516         36.0736         0.997928        -18.9727         0.997928        -18.9727        0.0176798         85.8429
0.6678                0.00866545         36.4641         0.997909        -19.1245         0.997909        -19.1245        0.0177603         85.4919
0.6731                0.00872634         36.8484          0.99789        -19.2763          0.99789        -19.2763        0.0178408         85.1418
0.6784                0.00878781         37.2266         0.997871        -19.4281         0.997871        -19.4281        0.0179214         84.7925
0.6837                0.00884986         37.5986         0.997853        -19.5799         0.997853        -19.5799        0.0180021         84.4442
0.689                 0.00891249         37.9647         0.997834        -19.7317         0.997834        -19.7317        0.0180828         84.0967
0.6943                0.00897569         38.3247         0.997815        -19.8835         0.997815        -19.8835        0.0181637         83.7501
0.6996                0.00903943         38.6788         0.997796        -20.0353         0.997796        -20.0353        0.0182446         83.4044
0.7049                0.00910371         39.0271         0.997777        -20.1871         0.997777        -20.1871        0.0183256         83.0595
0.7102                0.00916852         39.3697         0.997758        -20.3389         0.997758        -20.3389        0.0184067         82.7155
0.7155                0.00923386         39.7066         0.997739        -20.4907         0.997739        -20.4907        0.0184879         82.3722
0.7208                0.00929972         40.0378          0.99772        -20.6425          0.99772        -20.6425        0.0185691         82.0299
0.7261                0.00936608         40.3635         0.997701        -20.7943         0.997701        -20.7943        0.0186505         81.6883
0.7314                0.00943293         40.6837         0.997681        -20.9461         0.997681        -20.9461        0.0187319         81.3475
0.7367                0.00950027         40.9986         0.997662        -21.0979         0.997662        -21.0979        0.0188134         81.0075
0.742                 0.00956809         41.3081         0.997643        -21.2497         0.997643        -21.2497        0.0188949         80.6683
0.7473                0.00963639         41.6124         0.997624        -21.4015         0.997624        -21.4015        0.0189766         80.3299
0.7526                0.00970515         41.9114         0.997604        -21.5533         0.997604        -21.5533        0.0190583         79.9922
0.7579                0.00977436         42.2054         0.997585        -21.7051         0.997585        -21.7051        0.0191401         79.6553
0.7632                0.00984401         42.4944         0.997566        -21.8569         0.997566        -21.8569         0.019222         79.3191
0.7685                0.00991411         42.7783         0.997546        -22.0088         0.997546        -22.0088         0.019304         78.9837
0.7738                0.00998465         43.0574         0.997527        -22.1606         0.997527        -22.1606         0.019386         78.6491
0.7791                 0.0100556         43.3316         0.997507        -22.3124         0.997507        -22.3124        0.0194681         78.3151
0.7844                  0.010127         43.6011         0.997488        -22.4642         0.997488        -22.4642        0.0195503         77.9819
0.7897                 0.0101988         43.8659         0.997468         -22.616         0.997468         -22.616        0.0196326         77.6493
0.795                   0.010271         44.1261         0.997448        -22.7678         0.997448        -22.7678        0.0197149         77.3175
0.8003                 0.0103436         44.3818         0.997429        -22.9196         0.997429        -22.9196        0.0197974         76.9864
0.8056                 0.0104165         44.6329         0.997409        -23.0714         0.997409        -23.0714        0.0198799          76.656
0.8109                 0.0104899         44.8797         0.997389        -23.2232         0.997389        -23.2232        0.0199625         76.3262
0.8162                 0.0105637         45.1221          0.99737         -23.375          0.99737         -23.375        0.0200451         75.9971
0.8215                 0.0106378         45.3602          0.99735        -23.5268          0.99735        -23.5268        0.0201278         75.6687
0.8268                 0.0107123         45.5941          0.99733        -23.6786          0.99733        -23.6786        0.0202107         75.3409
0.8321                 0.0107871         45.8238          0.99731        -23.8304          0.99731        -23.8304        0.0202936         75.0138
0.8374                 0.0108623         46.0495          0.99729        -23.9822          0.99729        -23.9822        0.0203765         74.6874
0.8427                 0.0109379         46.2712          0.99727         -24.134          0.99727         -24.134        0.0204596         74.3616
0.848                  0.0110138         46.4889          0.99725        -24.2858          0.99725        -24.2858        0.0205427         74.0364
0.8533                 0.0110901         46.7026          0.99723        -24.4376          0.99723        -24.4376        0.0206259         73.7118
0.8586                 0.0111666         46.9126          0.99721        -24.5894          0.99721        -24.5894        0.0207092         73.3879
0.8639                 0.0112435         47.1187          0.99719        -24.7412          0.99719        -24.7412        0.0207925         73.0646
0.8692                 0.0113208         47.3212          0.99717         -24.893          0.99717         -24.893        0.0208759         72.7418
0.8745                 0.0113983           47.52          0.99715        -25.0448          0.99715        -25.0448        0.0209594         72.4197
0.8798                 0.0114762         47.7151          0.99713        -25.1966          0.99713        -25.1966         0.021043         72.0982
0.8851                 0.0115544         47.9067          0.99711        -25.3484          0.99711        -25.3484        0.0211266         71.7773
0.8904                 0.0116329         48.0948         0.997089        -25.5002         0.997089        -25.5002        0.0212104          71.457
0.8957                 0.0117117         48.2795         0.997069         -25.652         0.997069         -25.652        0.0212942         71.1372
0.901                  0.0117908         48.4608         0.997049        -25.8038         0.997049        -25.8038         0.021378          70.818
0.9063                 0.0118702         48.6387         0.997028        -25.9556         0.997028        -25.9556         0.021462         70.4994
0.9116                 0.0119498         48.8133         0.997008        -26.1074         0.997008        -26.1074         0.021546         70.1814
0.9169                 0.0120298         48.9847         0.996987        -26.2592         0.996987        -26.2592        0.0216301         69.8639
0.9222                   0.01211          49.153         0.996967         -26.411         0.996967         -26.411        0.0217143         69.5469
0.9275                 0.0121905         49.3181         0.996946        -26.5628         0.996946        -26.5628        0.0217986         69.2305
0.9328                 0.0122713         49.4801         0.996926        -26.7146         0.996926        -26.7146        0.0218829         68.9147
0.9381                 0.0123524         49.6391         0.996905        -26.8664         0.996905        -26.8664        0.0219673         68.5994
0.9434                 0.0124337         49.7951         0.996885        -27.0182         0.996885        -27.0182        0.0220518         68.2846
0.9487                 0.0125153         49.9481         0.996864          -27.17         0.996864          -27.17        0.0221363         67.9703
0.954                  0.0125972         50.0983         0.996843        -27.3218         0.996843        -27.3218         0.022221         67.6566
0.9593                 0.0126793         50.2456         0.996823        -27.4736         0.996823        -27.4736        0.0223057         67.3434
0.9646                 0.0127617         50.3901         0.996802        -27.6254         0.996802        -27.6254        0.0223904         67.0307
0.9699                 0.0128443         50.5318         0.996781        -27.7772         0.996781        -27.7772        0.0224753         66.7185
0.9752                 0.0129271         50.6708          0.99676         -27.929          0.99676         -27.929        0.0225602         66.4069
0.9805                 0.0130103         50.8072         0.996739        -28.0808         0.996739        -28.0808        0.0226452         66.0957
0.9858                 0.0130936         50.9408         0.996718        -28.2326         0.996718        -28.2326        0.0227303          65.785
0.9911                 0.0131772         51.0719         0.996697        -28.3844         0.996697        -28.3844        0.0228155         65.4748
0.9964                  0.013261         51.2004         0.996676        -28.5362         0.996676        -28.5362        0.0229007         65.1651