! TOUCHSTONE file generated by CST MICROWAVE STUDIO
! Date and time: Tue Jan  7 09:43:36 2020
! Project name: OSHPark_FR408_Transition2.cst
! Parameters = {GND_Plane_XMax=11.75; Cap_Disk_XOffset=0; Cap_Disk2_YCenter=-1.03; Cap_Disk_YCenter=1.03; Cap_Disk_XCenter=7.39; Cap_Disk_Radius=0.5; BottomSupport_Left_YMax=4.76; BottomSupport_Left_YMin=3.74; BottomSupport_Right_YMax=-3.74; BottomSupport_Right_YMin=-4.76; BottomSupport_XMax=11.64; BottomSupport_XMin=6.89; BottomSupport_ZMax=-1.64084; BottomSupport_ZMin=-3.58; Cu1_Thickness=0.03556; Cu2_Thickness=0.01778; Fr408Core_Thickness=1.1938; GND_Plane_Offset=2.875; PCBThickness=1.6256; Prepreg1_Zmin=-0.20574; Prepreg_Thickness=0.17018; RFTraceYMax=0.17145; RFTrace_XMax=15; RFTrace_XMin=11.46; RFTrace_YMin=-0.17145; SMA_CenterCond_Inner_XMax=11.64; SMA_CenterCond_Radius=0.6; SMA_Dielectric_InnerRadius=0.6; SMA_Dielectric_OuterRadius=2; SMA_Dielectric_XMax=5.62; SMA_Dielectric_XMin=0; SMA_Dielectric_YCenter=0; SMA_Dielectric_ZCenter=0; SMA_Footprint_Center_XMax=12.49; SMA_Footprint_Center_XMin=7.74; SMA_Footprint_Center_YMax=0.75; SMA_Footprint_Center_YMin=-0.75; SMA_OuterCond_InnerRadius=2; SMA_OuterCond_OuterRadius=3; SMA_OuterCond_XMax=6.89; SMA_XMax=6.67; SMA_XMin=0; SMA_YCenter=0; SMA_ZCenter=0; TopSupport_ZMax=1.02; TopSupport_ZMin=0; Via1_XCenter=7.5; Via1_YCenter=-4.25; Via2_XCenter=8.75; Via2_YCenter=-4.25; Via3_XCenter=10; Via3_YCenter=-4.25; Via4_XCenter=11.25; Via4_YCenter=-4.25; Via5_XCenter=7.5; Via5_YCenter=4.25; Via6_XCenter=8.75; Via6_YCenter=4.25; Via7_XCenter=10; Via7_YCenter=4.25; Via8_XCenter=11.25; Via8_YCenter=4.25; ViaInnerRadius=0; ViaOuterRadius=0.381}
! Header version: 2015
! Port assignment regex: !\s*Touchstone port\s*([0-9]+)\s*=\s*CST MWS port\s*([0-9]+)\s*\(\"(.*)\"\)(\s*mode\s*([0-9]+))?.*
! Touchstone port assignment:
! Touchstone port 1 = CST MWS port 1 ("")
! Touchstone port 2 = CST MWS port 2 ("")
# GHz S MA R 50
0                       0.138902               0         0.871888               0         0.871888               0         0.117212               0
0.0053                 0.0129502        -23.6198         0.999929       -0.159616         0.999929       -0.159616        0.0130211         155.744
0.0106                 0.0130249        -24.5189         0.999913       -0.307543         0.999913       -0.307543        0.0129478          156.35
0.0159                 0.0130754         -25.179         0.999897       -0.458861         0.999897       -0.458861         0.012899         156.719
0.0212                 0.0131208         -25.777         0.999881       -0.611025         0.999881       -0.611025        0.0128573         157.031
0.0265                 0.0131649        -26.3482         0.999865       -0.763529         0.999865       -0.763529        0.0128191         157.322
0.0318                 0.0132083        -26.9049         0.999849       -0.916202         0.999849       -0.916202        0.0127828         157.604
0.0371                 0.0132521        -27.4523         0.999833        -1.06897         0.999833        -1.06897        0.0127483          157.88
0.0424                  0.013297        -27.9924         0.999817         -1.2218         0.999817         -1.2218        0.0127158         158.155
0.0477                  0.013342        -28.5272         0.999801        -1.37467         0.999801        -1.37467        0.0126841         158.428
0.053                  0.0133874        -29.0577         0.999785        -1.52757         0.999785        -1.52757        0.0126533         158.702
0.0583                  0.013433        -29.5843         0.999769        -1.68049         0.999769        -1.68049         0.012623         158.976
0.0636                 0.0134794        -30.1067         0.999753        -1.83342         0.999753        -1.83342        0.0125939         159.251
0.0689                 0.0135264        -30.6252         0.999737        -1.98637         0.999737        -1.98637        0.0125657         159.527
0.0742                 0.0135741        -31.1401         0.999721        -2.13932         0.999721        -2.13932        0.0125385         159.805
0.0795                 0.0136224        -31.6516         0.999705        -2.29228         0.999705        -2.29228        0.0125122         160.084
0.0848                 0.0136713        -32.1597         0.999689        -2.44525         0.999689        -2.44525        0.0124868         160.364
0.0901                 0.0137208        -32.6645         0.999673        -2.59822         0.999673        -2.59822        0.0124622         160.646
0.0954                  0.013771         -33.166         0.999657         -2.7512         0.999657         -2.7512        0.0124386          160.93
0.1007                 0.0138218        -33.6643          0.99964        -2.90418          0.99964        -2.90418        0.0124158         161.215
0.106                  0.0138732        -34.1594         0.999624        -3.05716         0.999624        -3.05716        0.0123939         161.501
0.1113                 0.0139253        -34.6514         0.999608        -3.21015         0.999608        -3.21015        0.0123729         161.789
0.1166                 0.0139779        -35.1402         0.999592        -3.36314         0.999592        -3.36314        0.0123529         162.078
0.1219                 0.0140312        -35.6259         0.999575        -3.51613         0.999575        -3.51613        0.0123337         162.369
0.1272                  0.014085        -36.1084         0.999559        -3.66912         0.999559        -3.66912        0.0123154          162.66
0.1325                 0.0141395        -36.5879         0.999542        -3.82211         0.999542        -3.82211         0.012298         162.953
0.1378                 0.0141945        -37.0642         0.999526         -3.9751         0.999526         -3.9751        0.0122815         163.248
0.1431                 0.0142502        -37.5375         0.999509         -4.1281         0.999509         -4.1281         0.012266         163.543
0.1484                 0.0143063        -38.0077         0.999493        -4.28109         0.999493        -4.28109        0.0122513         163.839
0.1537                 0.0143631        -38.4749         0.999476        -4.43409         0.999476        -4.43409        0.0122375         164.137
0.159                  0.0144204         -38.939          0.99946        -4.58709          0.99946        -4.58709        0.0122247         164.435
0.1643                 0.0144782           -39.4         0.999443        -4.74008         0.999443        -4.74008        0.0122128         164.734
0.1696                 0.0145367         -39.858         0.999427        -4.89308         0.999427        -4.89308        0.0122018         165.034
0.1749                 0.0145956        -40.3131          0.99941        -5.04608          0.99941        -5.04608        0.0121917         165.335
0.1802                  0.014655        -40.7651         0.999393        -5.19908         0.999393        -5.19908        0.0121825         165.636
0.1855                  0.014715        -41.2141         0.999377        -5.35208         0.999377        -5.35208        0.0121743         165.938
0.1908                 0.0147755        -41.6602          0.99936        -5.50508          0.99936        -5.50508         0.012167          166.24
0.1961                 0.0148366        -42.1032         0.999343        -5.65808         0.999343        -5.65808        0.0121606         166.543
0.2014                 0.0148981        -42.5434         0.999326        -5.81108         0.999326        -5.81108        0.0121551         166.846
0.2067                 0.0149601        -42.9806         0.999309        -5.96408         0.999309        -5.96408        0.0121506         167.149
0.212                  0.0150226        -43.4149         0.999292        -6.11708         0.999292        -6.11708        0.0121469         167.452
0.2173                 0.0150855        -43.8462         0.999275        -6.27008         0.999275        -6.27008        0.0121443         167.756
0.2226                  0.015149        -44.2746         0.999259        -6.42308         0.999259        -6.42308        0.0121425          168.06
0.2279                 0.0152129        -44.7002         0.999242        -6.57608         0.999242        -6.57608        0.0121416         168.363
0.2332                 0.0152772        -45.1229         0.999225        -6.72908         0.999225        -6.72908        0.0121417         168.667
0.2385                 0.0153421        -45.5428         0.999207        -6.88208         0.999207        -6.88208        0.0121427          168.97
0.2438                 0.0154073        -45.9598          0.99919        -7.03508          0.99919        -7.03508        0.0121446         169.273
0.2491                  0.015473         -46.374         0.999173        -7.18808         0.999173        -7.18808        0.0121475         169.576
0.2544                 0.0155391        -46.7855         0.999156        -7.34109         0.999156        -7.34109        0.0121512         169.878
0.2597                 0.0156057        -47.1941         0.999139        -7.49409         0.999139        -7.49409        0.0121559          170.18
0.265                  0.0156727           -47.6         0.999122        -7.64709         0.999122        -7.64709        0.0121615         170.481
0.2703                 0.0157401        -48.0031         0.999105        -7.80009         0.999105        -7.80009         0.012168         170.781
0.2756                 0.0158078        -48.4035         0.999087        -7.95309         0.999087        -7.95309        0.0121755         171.081
0.2809                  0.015876        -48.8012          0.99907        -8.10609          0.99907        -8.10609        0.0121838          171.38
0.2862                 0.0159446        -49.1962         0.999053        -8.25909         0.999053        -8.25909         0.012193         171.678
0.2915                 0.0160135        -49.5886         0.999035        -8.41209         0.999035        -8.41209        0.0122032         171.975
0.2968                 0.0160829        -49.9782         0.999018        -8.56509         0.999018        -8.56509        0.0122142         172.271
0.3021                 0.0161526        -50.3653            0.999        -8.71809            0.999        -8.71809        0.0122262         172.566
0.3074                 0.0162227        -50.7497         0.998983        -8.87109         0.998983        -8.87109         0.012239         172.859
0.3127                 0.0162931        -51.1316         0.998966        -9.02409         0.998966        -9.02409        0.0122527         173.152
0.318                  0.0163639        -51.5109         0.998948        -9.17709         0.998948        -9.17709        0.0122673         173.443
0.3233                  0.016435        -51.8876          0.99893        -9.33009          0.99893        -9.33009        0.0122828         173.733
0.3286                 0.0165065        -52.2618         0.998913        -9.48309         0.998913        -9.48309        0.0122992         174.021
0.3339                 0.0165784        -52.6335         0.998895        -9.63609         0.998895        -9.63609        0.0123164         174.308
0.3392                 0.0166505        -53.0027         0.998878        -9.78909         0.998878        -9.78909        0.0123345         174.593
0.3445                  0.016723        -53.3694          0.99886        -9.94209          0.99886        -9.94209        0.0123535         174.877
0.3498                 0.0167958        -53.7336         0.998842        -10.0951         0.998842        -10.0951        0.0123733         175.159
0.3551                 0.0168689        -54.0954         0.998825        -10.2481         0.998825        -10.2481         0.012394         175.439
0.3604                 0.0169423        -54.4549         0.998807        -10.4011         0.998807        -10.4011        0.0124155         175.717
0.3657                  0.017016        -54.8119         0.998789        -10.5541         0.998789        -10.5541        0.0124379         175.994
0.371                    0.01709        -55.1666         0.998771        -10.7071         0.998771        -10.7071        0.0124611         176.268
0.3763                 0.0171643        -55.5189         0.998753        -10.8601         0.998753        -10.8601        0.0124851          176.54
0.3816                 0.0172389        -55.8689         0.998735        -11.0131         0.998735        -11.0131          0.01251         176.811
0.3869                 0.0173138        -56.2166         0.998718        -11.1661         0.998718        -11.1661        0.0125357         177.079
0.3922                  0.017389         -56.562           0.9987        -11.3191           0.9987        -11.3191        0.0125621         177.345
0.3975                 0.0174644        -56.9051         0.998682        -11.4721         0.998682        -11.4721        0.0125894         177.609
0.4028                 0.0175401         -57.246         0.998664        -11.6251         0.998664        -11.6251        0.0126175         177.871
0.4081                  0.017616        -57.5847         0.998646        -11.7781         0.998646        -11.7781        0.0126464          178.13
0.4134                 0.0176922        -57.9211         0.998627        -11.9311         0.998627        -11.9311        0.0126761         178.387
0.4187                 0.0177687        -58.2554         0.998609        -12.0841         0.998609        -12.0841        0.0127065         178.642
0.424                  0.0178454        -58.5875         0.998591        -12.2371         0.998591        -12.2371        0.0127377         178.895
0.4293                 0.0179224        -58.9175         0.998573        -12.3901         0.998573        -12.3901        0.0127697         179.144
0.4346                 0.0179996        -59.2453         0.998555        -12.5431         0.998555        -12.5431        0.0128025         179.392
0.4399                  0.018077        -59.5711         0.998537        -12.6961         0.998537        -12.6961         0.012836         179.637
0.4452                 0.0181546        -59.8948         0.998518        -12.8491         0.998518        -12.8491        0.0128702         179.879
0.4505                 0.0182325        -60.2164           0.9985         -13.002           0.9985         -13.002        0.0129052        -179.882
0.4558                 0.0183106        -60.5359         0.998482         -13.155         0.998482         -13.155        0.0129409        -179.644
0.4611                 0.0183889        -60.8534         0.998463         -13.308         0.998463         -13.308        0.0129773         -179.41
0.4664                 0.0184674         -61.169         0.998445         -13.461         0.998445         -13.461        0.0130144        -179.178
0.4717                 0.0185461        -61.4825         0.998427         -13.614         0.998427         -13.614        0.0130523        -178.949
0.477                   0.018625        -61.7941         0.998408         -13.767         0.998408         -13.767        0.0130908        -178.723
0.4823                 0.0187042        -62.1037          0.99839          -13.92          0.99839          -13.92          0.01313          -178.5
0.4876                 0.0187835        -62.4114         0.998371         -14.073         0.998371         -14.073        0.0131699        -178.279
0.4929                  0.018863        -62.7172         0.998353         -14.226         0.998353         -14.226        0.0132105        -178.061
0.4982                 0.0189427        -63.0211         0.998334         -14.379         0.998334         -14.379        0.0132518        -177.846
0.5035                 0.0190225        -63.3232         0.998316         -14.532         0.998316         -14.532        0.0132937        -177.633
0.5088                 0.0191026        -63.6234         0.998297         -14.685         0.998297         -14.685        0.0133363        -177.424
0.5141                 0.0191828        -63.9217         0.998278         -14.838         0.998278         -14.838        0.0133795        -177.217
0.5194                 0.0192632        -64.2182          0.99826         -14.991          0.99826         -14.991        0.0134233        -177.014
0.5247                 0.0193438         -64.513         0.998241         -15.144         0.998241         -15.144        0.0134678        -176.813
0.53                   0.0194245         -64.806         0.998222         -15.297         0.998222         -15.297        0.0135129        -176.615
0.5353                 0.0195053        -65.0972         0.998203        -15.4499         0.998203        -15.4499        0.0135586         -176.42
0.5406                 0.0195864        -65.3866         0.998185        -15.6029         0.998185        -15.6029         0.013605        -176.228
0.5459                 0.0196676        -65.6743         0.998166        -15.7559         0.998166        -15.7559        0.0136519        -176.039
0.5512                 0.0197489        -65.9604         0.998147        -15.9089         0.998147        -15.9089        0.0136994        -175.852
0.5565                 0.0198304        -66.2447         0.998128        -16.0619         0.998128        -16.0619        0.0137475        -175.669
0.5618                  0.019912        -66.5274         0.998109        -16.2149         0.998109        -16.2149        0.0137961        -175.489
0.5671                 0.0199937        -66.8084          0.99809        -16.3679          0.99809        -16.3679        0.0138454        -175.311
0.5724                 0.0200756        -67.0877         0.998071        -16.5209         0.998071        -16.5209        0.0138952        -175.137
0.5777                 0.0201576        -67.3655         0.998052        -16.6739         0.998052        -16.6739        0.0139455        -174.965
0.583                  0.0202398        -67.6416         0.998033        -16.8269         0.998033        -16.8269        0.0139964        -174.796
0.5883                  0.020322        -67.9161         0.998014        -16.9798         0.998014        -16.9798        0.0140478        -174.631
0.5936                 0.0204044        -68.1891         0.997995        -17.1328         0.997995        -17.1328        0.0140998        -174.468
0.5989                 0.0204869        -68.4605         0.997976        -17.2858         0.997976        -17.2858        0.0141522        -174.308
0.6042                 0.0205695        -68.7304         0.997957        -17.4388         0.997957        -17.4388        0.0142052        -174.151
0.6095                 0.0206523        -68.9987         0.997937        -17.5918         0.997937        -17.5918        0.0142587        -173.997
0.6148                 0.0207351        -69.2655         0.997918        -17.7448         0.997918        -17.7448        0.0143127        -173.846
0.6201                  0.020818        -69.5308         0.997899        -17.8978         0.997899        -17.8978        0.0143672        -173.698
0.6254                 0.0209011        -69.7947          0.99788        -18.0508          0.99788        -18.0508        0.0144221        -173.553
0.6307                 0.0209842        -70.0571          0.99786        -18.2037          0.99786        -18.2037        0.0144776         -173.41
0.636                  0.0210675         -70.318         0.997841        -18.3567         0.997841        -18.3567        0.0145335        -173.271
0.6413                 0.0211508        -70.5775         0.997822        -18.5097         0.997822        -18.5097        0.0145899        -173.134
0.6466                 0.0212342        -70.8355         0.997802        -18.6627         0.997802        -18.6627        0.0146467            -173
0.6519                 0.0213177        -71.0922         0.997783        -18.8157         0.997783        -18.8157         0.014704        -172.869
0.6572                 0.0214013        -71.3474         0.997764        -18.9687         0.997764        -18.9687        0.0147617        -172.741
0.6625                  0.021485        -71.6013         0.997744        -19.1217         0.997744        -19.1217        0.0148198        -172.616
0.6678                 0.0215687        -71.8538         0.997725        -19.2746         0.997725        -19.2746        0.0148784        -172.493
0.6731                 0.0216526         -72.105         0.997705        -19.4276         0.997705        -19.4276        0.0149374        -172.374
0.6784                 0.0217365        -72.3548         0.997685        -19.5806         0.997685        -19.5806        0.0149968        -172.257
0.6837                 0.0218204        -72.6033         0.997666        -19.7336         0.997666        -19.7336        0.0150567        -172.143
0.689                  0.0219045        -72.8505         0.997646        -19.8866         0.997646        -19.8866        0.0151169        -172.031
0.6943                 0.0219886        -73.0964         0.997627        -20.0396         0.997627        -20.0396        0.0151775        -171.923
0.6996                 0.0220728         -73.341         0.997607        -20.1925         0.997607        -20.1925        0.0152385        -171.817
0.7049                  0.022157        -73.5843         0.997587        -20.3455         0.997587        -20.3455        0.0152999        -171.713
0.7102                 0.0222413        -73.8264         0.997567        -20.4985         0.997567        -20.4985        0.0153616        -171.613
0.7155                 0.0223256        -74.0673         0.997548        -20.6515         0.997548        -20.6515        0.0154237        -171.515
0.7208                   0.02241        -74.3068         0.997528        -20.8045         0.997528        -20.8045        0.0154862         -171.42
0.7261                 0.0224945        -74.5452         0.997508        -20.9574         0.997508        -20.9574        0.0155491        -171.327
0.7314                  0.022579        -74.7823         0.997488        -21.1104         0.997488        -21.1104        0.0156123        -171.238
0.7367                 0.0226635        -75.0183         0.997468        -21.2634         0.997468        -21.2634        0.0156758         -171.15
0.742                  0.0227481        -75.2531         0.997448        -21.4164         0.997448        -21.4164        0.0157397        -171.065
0.7473                 0.0228327        -75.4867         0.997428        -21.5694         0.997428        -21.5694        0.0158039        -170.983
0.7526                 0.0229174        -75.7191         0.997408        -21.7223         0.997408        -21.7223        0.0158684        -170.904
0.7579                 0.0230021        -75.9504         0.997388        -21.8753         0.997388        -21.8753        0.0159332        -170.827
0.7632                 0.0230868        -76.1805         0.997368        -22.0283         0.997368        -22.0283        0.0159984        -170.752
0.7685                 0.0231716        -76.4096         0.997348        -22.1813         0.997348        -22.1813        0.0160639         -170.68
0.7738                 0.0232564        -76.6374         0.997328        -22.3343         0.997328        -22.3343        0.0161296        -170.611
0.7791                 0.0233413        -76.8642         0.997308        -22.4872         0.997308        -22.4872        0.0161957        -170.543
0.7844                 0.0234261        -77.0899         0.997288        -22.6402         0.997288        -22.6402         0.016262        -170.479
0.7897                  0.023511        -77.3145         0.997268        -22.7932         0.997268        -22.7932        0.0163287        -170.417
0.795                  0.0235959        -77.5381         0.997248        -22.9462         0.997248        -22.9462        0.0163956        -170.357
0.8003                 0.0236808        -77.7605         0.997227        -23.0991         0.997227        -23.0991        0.0164628        -170.299
0.8056                 0.0237658        -77.9819         0.997207        -23.2521         0.997207        -23.2521        0.0165303        -170.244
0.8109                 0.0238507        -78.2023         0.997187        -23.4051         0.997187        -23.4051         0.016598        -170.191
0.8162                 0.0239357        -78.4216         0.997167        -23.5581         0.997167        -23.5581         0.016666        -170.141
0.8215                 0.0240207          -78.64         0.997146         -23.711         0.997146         -23.711        0.0167342        -170.093
0.8268                 0.0241057        -78.8572         0.997126         -23.864         0.997126         -23.864        0.0168027        -170.047
0.8321                 0.0241907        -79.0735         0.997106         -24.017         0.997106         -24.017        0.0168714        -170.003
0.8374                 0.0242757        -79.2888         0.997085          -24.17         0.997085          -24.17        0.0169404        -169.962
0.8427                 0.0243607        -79.5031         0.997065        -24.3229         0.997065        -24.3229        0.0170096        -169.923
0.848                  0.0244457        -79.7165         0.997044        -24.4759         0.997044        -24.4759         0.017079        -169.886
0.8533                 0.0245308        -79.9288         0.997024        -24.6289         0.997024        -24.6289        0.0171487        -169.851
0.8586                 0.0246158        -80.1402         0.997003        -24.7819         0.997003        -24.7819        0.0172186        -169.819
0.8639                 0.0247008        -80.3507         0.996983        -24.9348         0.996983        -24.9348        0.0172887        -169.789
0.8692                 0.0247858        -80.5602         0.996962        -25.0878         0.996962        -25.0878         0.017359         -169.76
0.8745                 0.0248708        -80.7688         0.996941        -25.2408         0.996941        -25.2408        0.0174295        -169.734
0.8798                 0.0249558        -80.9764         0.996921        -25.3937         0.996921        -25.3937        0.0175002         -169.71
0.8851                 0.0250408        -81.1832           0.9969        -25.5467           0.9969        -25.5467        0.0175711        -169.688
0.8904                 0.0251257         -81.389          0.99688        -25.6997          0.99688        -25.6997        0.0176422        -169.668
0.8957                 0.0252107         -81.594         0.996859        -25.8526         0.996859        -25.8526        0.0177135         -169.65
0.901                  0.0252956        -81.7981         0.996838        -26.0056         0.996838        -26.0056         0.017785        -169.634
0.9063                 0.0253806        -82.0012         0.996817        -26.1586         0.996817        -26.1586        0.0178566        -169.621
0.9116                 0.0254655        -82.2035         0.996796        -26.3116         0.996796        -26.3116        0.0179285        -169.609
0.9169                 0.0255504         -82.405         0.996776        -26.4645         0.996776        -26.4645        0.0180005        -169.599
0.9222                 0.0256352        -82.6056         0.996755        -26.6175         0.996755        -26.6175        0.0180726        -169.591
0.9275                 0.0257201        -82.8053         0.996734        -26.7705         0.996734        -26.7705         0.018145        -169.585
0.9328                 0.0258049        -83.0042         0.996713        -26.9234         0.996713        -26.9234        0.0182175        -169.581
0.9381                 0.0258897        -83.2022         0.996692        -27.0764         0.996692        -27.0764        0.0182901        -169.578
0.9434                 0.0259745        -83.3995         0.996671        -27.2294         0.996671        -27.2294        0.0183629        -169.578
0.9487                 0.0260592        -83.5959          0.99665        -27.3823          0.99665        -27.3823        0.0184359         -169.58
0.954                  0.0261439        -83.7915         0.996629        -27.5353         0.996629        -27.5353         0.018509        -169.583
0.9593                 0.0262286        -83.9863         0.996608        -27.6883         0.996608        -27.6883        0.0185822        -169.588
0.9646                 0.0263132        -84.1803         0.996587        -27.8412         0.996587        -27.8412        0.0186556        -169.595
0.9699                 0.0263978        -84.3735         0.996566        -27.9942         0.996566        -27.9942        0.0187291        -169.604
0.9752                 0.0264824         -84.566         0.996545        -28.1471         0.996545        -28.1471        0.0188028        -169.614
0.9805                 0.0265669        -84.7576         0.996524        -28.3001         0.996524        -28.3001        0.0188765        -169.626
0.9858                 0.0266514        -84.9485         0.996503        -28.4531         0.996503        -28.4531        0.0189504         -169.64
0.9911                 0.0267359        -85.1386         0.996481         -28.606         0.996481         -28.606        0.0190245        -169.656
0.9964                 0.0268203         -85.328          0.99646         -28.759          0.99646         -28.759        0.0190986        -169.673