! TOUCHSTONE file generated by CST MICROWAVE STUDIO
! Date and time: Tue Jan  7 09:43:51 2020
! Project name: OSHPark_FR408_Transition2.cst
! Parameters = {GND_Plane_XMax=12.5; Cap_Disk_XOffset=0; Cap_Disk2_YCenter=-1.03; Cap_Disk_YCenter=1.03; Cap_Disk_XCenter=7.39; Cap_Disk_Radius=0.5; BottomSupport_Left_YMax=4.76; BottomSupport_Left_YMin=3.74; BottomSupport_Right_YMax=-3.74; BottomSupport_Right_YMin=-4.76; BottomSupport_XMax=11.64; BottomSupport_XMin=6.89; BottomSupport_ZMax=-1.64084; BottomSupport_ZMin=-3.58; Cu1_Thickness=0.03556; Cu2_Thickness=0.01778; Fr408Core_Thickness=1.1938; GND_Plane_Offset=2.9; PCBThickness=1.6256; Prepreg1_Zmin=-0.20574; Prepreg_Thickness=0.17018; RFTraceYMax=0.17145; RFTrace_XMax=15; RFTrace_XMin=11.46; RFTrace_YMin=-0.17145; SMA_CenterCond_Inner_XMax=11.64; SMA_CenterCond_Radius=0.6; SMA_Dielectric_InnerRadius=0.6; SMA_Dielectric_OuterRadius=2; SMA_Dielectric_XMax=5.62; SMA_Dielectric_XMin=0; SMA_Dielectric_YCenter=0; SMA_Dielectric_ZCenter=0; SMA_Footprint_Center_XMax=12.49; SMA_Footprint_Center_XMin=7.74; SMA_Footprint_Center_YMax=0.75; SMA_Footprint_Center_YMin=-0.75; SMA_OuterCond_InnerRadius=2; SMA_OuterCond_OuterRadius=3; SMA_OuterCond_XMax=6.89; SMA_XMax=6.67; SMA_XMin=0; SMA_YCenter=0; SMA_ZCenter=0; TopSupport_ZMax=1.02; TopSupport_ZMin=0; Via1_XCenter=7.5; Via1_YCenter=-4.25; Via2_XCenter=8.75; Via2_YCenter=-4.25; Via3_XCenter=10; Via3_YCenter=-4.25; Via4_XCenter=11.25; Via4_YCenter=-4.25; Via5_XCenter=7.5; Via5_YCenter=4.25; Via6_XCenter=8.75; Via6_YCenter=4.25; Via7_XCenter=10; Via7_YCenter=4.25; Via8_XCenter=11.25; Via8_YCenter=4.25; ViaInnerRadius=0; ViaOuterRadius=0.381}
! Header version: 2015
! Port assignment regex: !\s*Touchstone port\s*([0-9]+)\s*=\s*CST MWS port\s*([0-9]+)\s*\(\"(.*)\"\)(\s*mode\s*([0-9]+))?.*
! Touchstone port assignment:
! Touchstone port 1 = CST MWS port 1 ("")
! Touchstone port 2 = CST MWS port 2 ("")
# GHz S MA R 50
0                     0.00946245               0         0.999969               0         0.999969               0       0.00946196             180
0.0053                 0.0107235        -27.9093         0.999926       -0.159317         0.999926       -0.159317        0.0108764         149.996
0.0106                 0.0107289        -28.4378          0.99994       -0.305672          0.99994       -0.305672          0.01087         150.229
0.0159                 0.0107291         -28.567         0.999922       -0.455994         0.999922       -0.455994        0.0108669         150.047
0.0212                 0.0107229        -28.6251         0.999903       -0.607166         0.999903       -0.607166        0.0108707         149.795
0.0265                 0.0107141        -28.6575         0.999884       -0.758655         0.999884       -0.758655        0.0108777         149.519
0.0318                 0.0107035        -28.6792         0.999865       -0.910297         0.999865       -0.910297        0.0108859          149.23
0.0371                 0.0106921         -28.693         0.999846        -1.06203         0.999846        -1.06203        0.0108951         148.935
0.0424                 0.0106809         -28.699         0.999828        -1.21381         0.999828        -1.21381        0.0109056         148.641
0.0477                 0.0106689        -28.7034          0.99981        -1.36562          0.99981        -1.36562        0.0109159         148.343
0.053                  0.0106562        -28.7071         0.999791        -1.51746         0.999791        -1.51746        0.0109261         148.041
0.0583                 0.0106428        -28.7111         0.999773        -1.66932         0.999773        -1.66932         0.010936         147.737
0.0636                 0.0106293        -28.7138         0.999755        -1.82119         0.999755        -1.82119         0.010946         147.432
0.0689                 0.0106157        -28.7155         0.999737        -1.97307         0.999737        -1.97307        0.0109562         147.126
0.0742                  0.010602        -28.7165         0.999719        -2.12495         0.999719        -2.12495        0.0109663          146.82
0.0795                  0.010588        -28.7172           0.9997        -2.27685           0.9997        -2.27685        0.0109763         146.513
0.0848                 0.0105738        -28.7177         0.999682        -2.42874         0.999682        -2.42874        0.0109862         146.205
0.0901                 0.0105595        -28.7179         0.999664        -2.58065         0.999664        -2.58065        0.0109961         145.897
0.0954                 0.0105451        -28.7179         0.999646        -2.73255         0.999646        -2.73255        0.0110059         145.589
0.1007                 0.0105304        -28.7178         0.999628        -2.88446         0.999628        -2.88446        0.0110156          145.28
0.106                  0.0105157        -28.7176          0.99961        -3.03636          0.99961        -3.03636        0.0110251          144.97
0.1113                 0.0105007        -28.7173         0.999591        -3.18827         0.999591        -3.18827        0.0110346          144.66
0.1166                 0.0104857        -28.7168         0.999573        -3.34019         0.999573        -3.34019         0.011044          144.35
0.1219                 0.0104705        -28.7164         0.999555         -3.4921         0.999555         -3.4921        0.0110532          144.04
0.1272                 0.0104552        -28.7158         0.999537        -3.64401         0.999537        -3.64401        0.0110624         143.729
0.1325                 0.0104397        -28.7152         0.999519        -3.79593         0.999519        -3.79593        0.0110714         143.418
0.1378                 0.0104242        -28.7145           0.9995        -3.94784           0.9995        -3.94784        0.0110804         143.106
0.1431                 0.0104084        -28.7138         0.999482        -4.09975         0.999482        -4.09975        0.0110892         142.794
0.1484                 0.0103926        -28.7131         0.999464        -4.25167         0.999464        -4.25167        0.0110979         142.482
0.1537                 0.0103766        -28.7123         0.999446        -4.40359         0.999446        -4.40359        0.0111065          142.17
0.159                  0.0103605        -28.7114         0.999428         -4.5555         0.999428         -4.5555        0.0111149         141.857
0.1643                 0.0103443        -28.7105         0.999409        -4.70742         0.999409        -4.70742        0.0111233         141.544
0.1696                  0.010328        -28.7095         0.999391        -4.85933         0.999391        -4.85933        0.0111316          141.23
0.1749                 0.0103115        -28.7085         0.999373        -5.01125         0.999373        -5.01125        0.0111397         140.916
0.1802                 0.0102949        -28.7075         0.999355        -5.16316         0.999355        -5.16316        0.0111477         140.602
0.1855                 0.0102781        -28.7063         0.999337        -5.31508         0.999337        -5.31508        0.0111556         140.288
0.1908                 0.0102613        -28.7051         0.999318        -5.46699         0.999318        -5.46699        0.0111634         139.973
0.1961                 0.0102443        -28.7039           0.9993        -5.61891           0.9993        -5.61891        0.0111711         139.658
0.2014                 0.0102272        -28.7025         0.999282        -5.77082         0.999282        -5.77082        0.0111787         139.343
0.2067                 0.0102099        -28.7011         0.999264        -5.92274         0.999264        -5.92274        0.0111862         139.027
0.212                  0.0101926        -28.6997         0.999245        -6.07465         0.999245        -6.07465        0.0111935         138.711
0.2173                 0.0101751         -28.698         0.999227        -6.22657         0.999227        -6.22657        0.0112008         138.395
0.2226                 0.0101575        -28.6964         0.999209        -6.37848         0.999209        -6.37848        0.0112079         138.078
0.2279                 0.0101397        -28.6946          0.99919        -6.53039          0.99919        -6.53039        0.0112149         137.761
0.2332                 0.0101218        -28.6927         0.999172        -6.68231         0.999172        -6.68231        0.0112218         137.443
0.2385                 0.0101039        -28.6907         0.999154        -6.83422         0.999154        -6.83422        0.0112286         137.126
0.2438                 0.0100857        -28.6886         0.999135        -6.98613         0.999135        -6.98613        0.0112353         136.808
0.2491                 0.0100675        -28.6863         0.999117        -7.13805         0.999117        -7.13805        0.0112419         136.489
0.2544                 0.0100491         -28.684         0.999099        -7.28996         0.999099        -7.28996        0.0112484          136.17
0.2597                 0.0100306        -28.6815          0.99908        -7.44187          0.99908        -7.44187        0.0112548         135.851
0.265                   0.010012        -28.6789         0.999062        -7.59378         0.999062        -7.59378        0.0112611         135.531
0.2703                0.00999328         -28.676         0.999044        -7.74569         0.999044        -7.74569        0.0112673         135.211
0.2756                0.00997441         -28.673         0.999025         -7.8976         0.999025         -7.8976        0.0112733         134.891
0.2809                0.00995541        -28.6699         0.999007        -8.04951         0.999007        -8.04951        0.0112793          134.57
0.2862                0.00993629        -28.6666         0.998988        -8.20142         0.998988        -8.20142        0.0112852         134.249
0.2915                0.00991703        -28.6632          0.99897        -8.35333          0.99897        -8.35333        0.0112909         133.927
0.2968                0.00989767        -28.6595         0.998952        -8.50524         0.998952        -8.50524        0.0112966         133.605
0.3021                0.00987818        -28.6556         0.998933        -8.65715         0.998933        -8.65715        0.0113022         133.283
0.3074                0.00985855        -28.6515         0.998915        -8.80906         0.998915        -8.80906        0.0113076          132.96
0.3127                 0.0098388        -28.6472         0.998896        -8.96096         0.998896        -8.96096         0.011313         132.637
0.318                 0.00981892        -28.6428         0.998878        -9.11287         0.998878        -9.11287        0.0113183         132.313
0.3233                0.00979893         -28.638         0.998859        -9.26478         0.998859        -9.26478        0.0113235         131.989
0.3286                0.00977881         -28.633         0.998841        -9.41668         0.998841        -9.41668        0.0113286         131.665
0.3339                0.00975855        -28.6278         0.998822        -9.56859         0.998822        -9.56859        0.0113336          131.34
0.3392                0.00973817        -28.6223         0.998804        -9.72049         0.998804        -9.72049        0.0113385         131.015
0.3445                0.00971767        -28.6166         0.998785         -9.8724         0.998785         -9.8724        0.0113433         130.689
0.3498                0.00969705        -28.6106         0.998767        -10.0243         0.998767        -10.0243         0.011348         130.363
0.3551                 0.0096763        -28.6043         0.998748        -10.1762         0.998748        -10.1762        0.0113526         130.036
0.3604                0.00965542        -28.5978          0.99873        -10.3281          0.99873        -10.3281        0.0113572         129.709
0.3657                0.00963442        -28.5909         0.998711          -10.48         0.998711          -10.48        0.0113616         129.382
0.371                 0.00961328        -28.5837         0.998693        -10.6319         0.998693        -10.6319         0.011366         129.054
0.3763                0.00959204        -28.5762         0.998674        -10.7838         0.998674        -10.7838        0.0113703         128.725
0.3816                0.00957067        -28.5684         0.998656        -10.9357         0.998656        -10.9357        0.0113745         128.396
0.3869                0.00954917        -28.5603         0.998637        -11.0876         0.998637        -11.0876        0.0113786         128.067
0.3922                0.00952754        -28.5518         0.998619        -11.2395         0.998619        -11.2395        0.0113826         127.737
0.3975                0.00950578         -28.543           0.9986        -11.3914           0.9986        -11.3914        0.0113866         127.406
0.4028                0.00948392        -28.5337         0.998581        -11.5433         0.998581        -11.5433        0.0113905         127.076
0.4081                0.00946193        -28.5241         0.998563        -11.6952         0.998563        -11.6952        0.0113942         126.744
0.4134                 0.0094398        -28.5142         0.998544        -11.8471         0.998544        -11.8471         0.011398         126.412
0.4187                0.00941755        -28.5038         0.998525         -11.999         0.998525         -11.999        0.0114016          126.08
0.424                 0.00939517        -28.4931         0.998507        -12.1509         0.998507        -12.1509        0.0114051         125.747
0.4293                0.00937269        -28.4819         0.998488        -12.3028         0.998488        -12.3028        0.0114086         125.414
0.4346                0.00935008        -28.4703         0.998469        -12.4547         0.998469        -12.4547         0.011412          125.08
0.4399                0.00932734        -28.4582         0.998451        -12.6066         0.998451        -12.6066        0.0114154         124.746
0.4452                0.00930447        -28.4458         0.998432        -12.7585         0.998432        -12.7585        0.0114186         124.411
0.4505                0.00928148        -28.4328         0.998413        -12.9104         0.998413        -12.9104        0.0114218         124.075
0.4558                0.00925838        -28.4194         0.998395        -13.0623         0.998395        -13.0623         0.011425         123.739
0.4611                0.00923516        -28.4055         0.998376        -13.2142         0.998376        -13.2142         0.011428         123.403
0.4664                 0.0092118        -28.3911         0.998357        -13.3661         0.998357        -13.3661         0.011431         123.066
0.4717                0.00918833        -28.3762         0.998338         -13.518         0.998338         -13.518        0.0114339         122.729
0.477                 0.00916473        -28.3609          0.99832        -13.6699          0.99832        -13.6699        0.0114368          122.39
0.4823                0.00914102        -28.3449         0.998301        -13.8218         0.998301        -13.8218        0.0114396         122.052
0.4876                0.00911719        -28.3284         0.998282        -13.9737         0.998282        -13.9737        0.0114423         121.713
0.4929                0.00909323        -28.3114         0.998263        -14.1256         0.998263        -14.1256         0.011445         121.373
0.4982                0.00906915        -28.2938         0.998245        -14.2775         0.998245        -14.2775        0.0114476         121.033
0.5035                0.00904495        -28.2757         0.998226        -14.4294         0.998226        -14.4294        0.0114501         120.692
0.5088                0.00902064        -28.2569         0.998207        -14.5813         0.998207        -14.5813        0.0114526         120.351
0.5141                0.00899621        -28.2375         0.998188        -14.7331         0.998188        -14.7331        0.0114551         120.009
0.5194                0.00897165        -28.2175         0.998169         -14.885         0.998169         -14.885        0.0114575         119.666
0.5247                0.00894698        -28.1969          0.99815        -15.0369          0.99815        -15.0369        0.0114598         119.323
0.53                  0.00892218        -28.1757         0.998132        -15.1888         0.998132        -15.1888        0.0114621         118.979
0.5353                0.00889728        -28.1538         0.998113        -15.3407         0.998113        -15.3407        0.0114643         118.635
0.5406                0.00887226        -28.1312         0.998094        -15.4926         0.998094        -15.4926        0.0114665          118.29
0.5459                0.00884712        -28.1079         0.998075        -15.6445         0.998075        -15.6445        0.0114686         117.945
0.5512                0.00882185         -28.084         0.998056        -15.7964         0.998056        -15.7964        0.0114707         117.599
0.5565                0.00879647        -28.0593         0.998037        -15.9483         0.998037        -15.9483        0.0114727         117.253
0.5618                0.00877099        -28.0339         0.998018        -16.1002         0.998018        -16.1002        0.0114747         116.905
0.5671                0.00874539        -28.0077         0.997999        -16.2521         0.997999        -16.2521        0.0114767         116.558
0.5724                0.00871967        -27.9808          0.99798        -16.4039          0.99798        -16.4039        0.0114786         116.209
0.5777                0.00869383        -27.9532         0.997961        -16.5558         0.997961        -16.5558        0.0114804          115.86
0.583                 0.00866788        -27.9247         0.997942        -16.7077         0.997942        -16.7077        0.0114822         115.511
0.5883                0.00864183        -27.8954         0.997923        -16.8596         0.997923        -16.8596         0.011484         115.161
0.5936                0.00861566        -27.8653         0.997904        -17.0115         0.997904        -17.0115        0.0114858          114.81
0.5989                0.00858938        -27.8344         0.997885        -17.1634         0.997885        -17.1634        0.0114875         114.458
0.6042                0.00856298        -27.8026         0.997866        -17.3153         0.997866        -17.3153        0.0114892         114.106
0.6095                0.00853647        -27.7699         0.997847        -17.4671         0.997847        -17.4671        0.0114908         113.754
0.6148                0.00850986        -27.7364         0.997828         -17.619         0.997828         -17.619        0.0114925           113.4
0.6201                0.00848314        -27.7019         0.997809        -17.7709         0.997809        -17.7709        0.0114941         113.046
0.6254                 0.0084563        -27.6665          0.99779        -17.9228          0.99779        -17.9228        0.0114956         112.692
0.6307                0.00842936        -27.6302         0.997771        -18.0747         0.997771        -18.0747        0.0114972         112.337
0.636                  0.0084023        -27.5929         0.997752        -18.2266         0.997752        -18.2266        0.0114987         111.981
0.6413                0.00837516        -27.5546         0.997733        -18.3785         0.997733        -18.3785        0.0115002         111.625
0.6466                 0.0083479        -27.5153         0.997714        -18.5303         0.997714        -18.5303        0.0115017         111.267
0.6519                0.00832053        -27.4751         0.997694        -18.6822         0.997694        -18.6822        0.0115031          110.91
0.6572                0.00829306        -27.4338         0.997675        -18.8341         0.997675        -18.8341        0.0115045         110.551
0.6625                0.00826548        -27.3914         0.997656         -18.986         0.997656         -18.986         0.011506         110.192
0.6678                0.00823781        -27.3479         0.997637        -19.1379         0.997637        -19.1379        0.0115074         109.833
0.6731                0.00821003        -27.3034         0.997618        -19.2898         0.997618        -19.2898        0.0115088         109.472
0.6784                0.00818215        -27.2577         0.997599        -19.4416         0.997599        -19.4416        0.0115101         109.111
0.6837                0.00815416        -27.2109         0.997579        -19.5935         0.997579        -19.5935        0.0115115          108.75
0.689                 0.00812607         -27.163          0.99756        -19.7454          0.99756        -19.7454        0.0115128         108.388
0.6943                 0.0080979        -27.1138         0.997541        -19.8973         0.997541        -19.8973        0.0115142         108.025
0.6996                0.00806963        -27.0635         0.997522        -20.0492         0.997522        -20.0492        0.0115155         107.661
0.7049                0.00804126        -27.0119         0.997502         -20.201         0.997502         -20.201        0.0115169         107.297
0.7102                0.00801278        -26.9591         0.997483        -20.3529         0.997483        -20.3529        0.0115182         106.932
0.7155                0.00798421         -26.905         0.997464        -20.5048         0.997464        -20.5048        0.0115195         106.566
0.7208                0.00795556        -26.8496         0.997445        -20.6567         0.997445        -20.6567        0.0115209           106.2
0.7261                0.00792682        -26.7929         0.997425        -20.8086         0.997425        -20.8086        0.0115222         105.833
0.7314                0.00789797        -26.7349         0.997406        -20.9604         0.997406        -20.9604        0.0115235         105.465
0.7367                0.00786903        -26.6755         0.997387        -21.1123         0.997387        -21.1123        0.0115249         105.097
0.742                 0.00784001        -26.6147         0.997367        -21.2642         0.997367        -21.2642        0.0115262         104.728
0.7473                 0.0078109        -26.5524         0.997348        -21.4161         0.997348        -21.4161        0.0115276         104.359
0.7526                0.00778171        -26.4887         0.997328        -21.5679         0.997328        -21.5679         0.011529         103.988
0.7579                0.00775242        -26.4236         0.997309        -21.7198         0.997309        -21.7198        0.0115303         103.617
0.7632                0.00772305         -26.357          0.99729        -21.8717          0.99729        -21.8717        0.0115317         103.246
0.7685                0.00769359        -26.2888          0.99727        -22.0236          0.99727        -22.0236        0.0115331         102.873
0.7738                0.00766407        -26.2191         0.997251        -22.1755         0.997251        -22.1755        0.0115346           102.5
0.7791                0.00763446        -26.1478         0.997231        -22.3273         0.997231        -22.3273         0.011536         102.127
0.7844                0.00760476        -26.0749         0.997212        -22.4792         0.997212        -22.4792        0.0115375         101.752
0.7897                0.00757498        -26.0003         0.997192        -22.6311         0.997192        -22.6311         0.011539         101.377
0.795                 0.00754513        -25.9241         0.997173         -22.783         0.997173         -22.783        0.0115405         101.002
0.8003                0.00751521        -25.8462         0.997153        -22.9348         0.997153        -22.9348         0.011542         100.625
0.8056                0.00748522        -25.7665         0.997134        -23.0867         0.997134        -23.0867        0.0115436         100.248
0.8109                0.00745514        -25.6851         0.997114        -23.2386         0.997114        -23.2386        0.0115452         99.8704
0.8162                0.00742499         -25.602         0.997095        -23.3905         0.997095        -23.3905        0.0115468         99.4919
0.8215                0.00739477         -25.517         0.997075        -23.5423         0.997075        -23.5423        0.0115485         99.1128
0.8268                 0.0073645          -25.43         0.997056        -23.6942         0.997056        -23.6942        0.0115502          98.733
0.8321                0.00733416        -25.3412         0.997036        -23.8461         0.997036        -23.8461        0.0115519         98.3525
0.8374                0.00730375        -25.2506         0.997017        -23.9979         0.997017        -23.9979        0.0115537         97.9713
0.8427                0.00727327        -25.1579         0.996997        -24.1498         0.996997        -24.1498        0.0115555         97.5894
0.848                 0.00724273        -25.0633         0.996977        -24.3017         0.996977        -24.3017        0.0115573         97.2068
0.8533                0.00721215        -24.9666         0.996958        -24.4536         0.996958        -24.4536        0.0115592         96.8236
0.8586                 0.0071815        -24.8678         0.996938        -24.6054         0.996938        -24.6054        0.0115612         96.4397
0.8639                0.00715079        -24.7669         0.996918        -24.7573         0.996918        -24.7573        0.0115631         96.0551
0.8692                0.00712003        -24.6639         0.996899        -24.9092         0.996899        -24.9092        0.0115652         95.6698
0.8745                0.00708921        -24.5588         0.996879         -25.061         0.996879         -25.061        0.0115673         95.2839
0.8798                0.00705836        -24.4513         0.996859        -25.2129         0.996859        -25.2129        0.0115694         94.8973
0.8851                0.00702746        -24.3416          0.99684        -25.3648          0.99684        -25.3648        0.0115716           94.51
0.8904                0.00699651        -24.2297          0.99682        -25.5167          0.99682        -25.5167        0.0115739          94.122
0.8957                0.00696551        -24.1154           0.9968        -25.6685           0.9968        -25.6685        0.0115762         93.7333
0.901                 0.00693447        -23.9988          0.99678        -25.8204          0.99678        -25.8204        0.0115785          93.344
0.9063                0.00690341        -23.8797         0.996761        -25.9723         0.996761        -25.9723         0.011581          92.954
0.9116                 0.0068723        -23.7581         0.996741        -26.1241         0.996741        -26.1241        0.0115835         92.5633
0.9169                0.00684115         -23.634         0.996721         -26.276         0.996721         -26.276         0.011586          92.172
0.9222                0.00680997        -23.5074         0.996701        -26.4279         0.996701        -26.4279        0.0115887         91.7799
0.9275                0.00677876        -23.3782         0.996681        -26.5797         0.996681        -26.5797        0.0115913         91.3872
0.9328                0.00674754        -23.2463         0.996661        -26.7316         0.996661        -26.7316        0.0115941         90.9939
0.9381                0.00671629        -23.1117         0.996642        -26.8835         0.996642        -26.8835         0.011597         90.5999
0.9434                  0.006685        -22.9744         0.996622        -27.0354         0.996622        -27.0354        0.0115999         90.2053
0.9487                 0.0066537        -22.8343         0.996602        -27.1872         0.996602        -27.1872        0.0116029           89.81
0.954                 0.00662239        -22.6914         0.996582        -27.3391         0.996582        -27.3391        0.0116059          89.414
0.9593                0.00659107        -22.5456         0.996562         -27.491         0.996562         -27.491        0.0116091         89.0174
0.9646                0.00655974        -22.3968         0.996542        -27.6428         0.996542        -27.6428        0.0116124         88.6201
0.9699                 0.0065284        -22.2451         0.996522        -27.7947         0.996522        -27.7947        0.0116157         88.2222
0.9752                0.00649705        -22.0903         0.996502        -27.9466         0.996502        -27.9466        0.0116191         87.8236
0.9805                0.00646569        -21.9324         0.996482        -28.0984         0.996482        -28.0984        0.0116226         87.4244
0.9858                0.00643436        -21.7714         0.996462        -28.2503         0.996462        -28.2503        0.0116262         87.0246
0.9911                0.00640303        -21.6072         0.996442        -28.4022         0.996442        -28.4022        0.0116298         86.6242
0.9964                0.00637169        -21.4397         0.996422         -28.554         0.996422         -28.554        0.0116336         86.2231