! TOUCHSTONE file generated by CST MICROWAVE STUDIO
! Date and time: Tue Jan  7 09:43:22 2020
! Project name: OSHPark_FR408_Transition2.cst
! Parameters = {GND_Plane_XMax=13; Cap_Disk_XOffset=0; Cap_Disk2_YCenter=-1.03; Cap_Disk_YCenter=1.03; Cap_Disk_XCenter=7.39; Cap_Disk_Radius=0.5; BottomSupport_Left_YMax=4.76; BottomSupport_Left_YMin=3.74; BottomSupport_Right_YMax=-3.74; BottomSupport_Right_YMin=-4.76; BottomSupport_XMax=11.64; BottomSupport_XMin=6.89; BottomSupport_ZMax=-1.64084; BottomSupport_ZMin=-3.58; Cu1_Thickness=0.03556; Cu2_Thickness=0.01778; Fr408Core_Thickness=1.1938; GND_Plane_Offset=2.825; PCBThickness=1.6256; Prepreg1_Zmin=-0.20574; Prepreg_Thickness=0.17018; RFTraceYMax=0.17145; RFTrace_XMax=15; RFTrace_XMin=11.46; RFTrace_YMin=-0.17145; SMA_CenterCond_Inner_XMax=11.64; SMA_CenterCond_Radius=0.6; SMA_Dielectric_InnerRadius=0.6; SMA_Dielectric_OuterRadius=2; SMA_Dielectric_XMax=5.62; SMA_Dielectric_XMin=0; SMA_Dielectric_YCenter=0; SMA_Dielectric_ZCenter=0; SMA_Footprint_Center_XMax=12.49; SMA_Footprint_Center_XMin=7.74; SMA_Footprint_Center_YMax=0.75; SMA_Footprint_Center_YMin=-0.75; SMA_OuterCond_InnerRadius=2; SMA_OuterCond_OuterRadius=3; SMA_OuterCond_XMax=6.89; SMA_XMax=6.67; SMA_XMin=0; SMA_YCenter=0; SMA_ZCenter=0; TopSupport_ZMax=1.02; TopSupport_ZMin=0; Via1_XCenter=7.5; Via1_YCenter=-4.25; Via2_XCenter=8.75; Via2_YCenter=-4.25; Via3_XCenter=10; Via3_YCenter=-4.25; Via4_XCenter=11.25; Via4_YCenter=-4.25; Via5_XCenter=7.5; Via5_YCenter=4.25; Via6_XCenter=8.75; Via6_YCenter=4.25; Via7_XCenter=10; Via7_YCenter=4.25; Via8_XCenter=11.25; Via8_YCenter=4.25; ViaInnerRadius=0; ViaOuterRadius=0.381}
! Header version: 2015
! Port assignment regex: !\s*Touchstone port\s*([0-9]+)\s*=\s*CST MWS port\s*([0-9]+)\s*\(\"(.*)\"\)(\s*mode\s*([0-9]+))?.*
! Touchstone port assignment:
! Touchstone port 1 = CST MWS port 1 ("")
! Touchstone port 2 = CST MWS port 2 ("")
# GHz S MA R 50
0                      0.0808403               0         0.924105               0         0.924105               0        0.0709489               0
0.0053                0.00844025         -34.373         0.999976        -0.16117         0.999976        -0.16117       0.00885027         141.918
0.0106                0.00839048          -34.14         0.999961       -0.308764         0.999961       -0.308764       0.00888563         141.341
0.0159                0.00832793        -33.4632         0.999947       -0.459823         0.999947       -0.459823       0.00897909         140.564
0.0212                0.00825442        -32.7061         0.999932        -0.61175         0.999932        -0.61175       0.00907921         139.705
0.0265                0.00817447        -31.9202         0.999918       -0.764026         0.999918       -0.764026       0.00917979         138.807
0.0318                0.00809802        -31.0851         0.999903       -0.916475         0.999903       -0.916475       0.00928637         137.924
0.0371                0.00801821        -30.2422         0.999889        -1.06902         0.999889        -1.06902       0.00939128         137.027
0.0424                0.00792702        -29.4291         0.999875        -1.22164         0.999875        -1.22164       0.00948704         136.077
0.0477                0.00784189        -28.5732          0.99986        -1.37429          0.99986        -1.37429       0.00958845          135.16
0.053                 0.00776295        -27.6773         0.999846        -1.52698         0.999846        -1.52698       0.00969506         134.274
0.0583                0.00769209        -26.7363         0.999831        -1.67968         0.999831        -1.67968       0.00980797         133.428
0.0636                0.00762137        -25.7827         0.999816         -1.8324         0.999816         -1.8324       0.00992036         132.584
0.0689                0.00755106        -24.8156         0.999801        -1.98513         0.999801        -1.98513        0.0100324         131.745
0.0742                 0.0074827        -23.8298         0.999787        -2.13787         0.999787        -2.13787        0.0101452         130.916
0.0795                0.00741705        -22.8233         0.999772        -2.29062         0.999772        -2.29062        0.0102593           130.1
0.0848                 0.0073546        -21.7953         0.999757        -2.44337         0.999757        -2.44337        0.0103748         129.299
0.0901                0.00729468        -20.7486         0.999742        -2.59614         0.999742        -2.59614        0.0104912          128.51
0.0954                0.00723731        -19.6839         0.999727         -2.7489         0.999727         -2.7489        0.0106084         127.731
0.1007                0.00718277         -18.601         0.999712        -2.90167         0.999712        -2.90167        0.0107265         126.963
0.106                 0.00713117        -17.5003         0.999697        -3.05444         0.999697        -3.05444        0.0108456         126.206
0.1113                0.00708265        -16.3824         0.999681        -3.20721         0.999681        -3.20721        0.0109655         125.461
0.1166                0.00703713        -15.2484         0.999666        -3.35999         0.999666        -3.35999        0.0110862         124.727
0.1219                0.00699464         -14.099         0.999651        -3.51277         0.999651        -3.51277        0.0112076         124.002
0.1272                0.00695531        -12.9349         0.999636        -3.66555         0.999636        -3.66555        0.0113298         123.288
0.1325                0.00691922         -11.757          0.99962        -3.81833          0.99962        -3.81833        0.0114528         122.583
0.1378                0.00688646        -10.5663         0.999605        -3.97112         0.999605        -3.97112        0.0115764         121.888
0.1431                  0.006857         -9.3639         0.999589         -4.1239         0.999589         -4.1239        0.0117008         121.202
0.1484                0.00683088         -8.1509         0.999574        -4.27669         0.999574        -4.27669        0.0118257         120.526
0.1537                0.00680817        -6.92842         0.999558        -4.42947         0.999558        -4.42947        0.0119513         119.858
0.159                 0.00678892        -5.69767         0.999542        -4.58226         0.999542        -4.58226        0.0120775         119.199
0.1643                0.00677318        -4.45992         0.999526        -4.73505         0.999526        -4.73505        0.0122044         118.548
0.1696                0.00676094        -3.21649         0.999511        -4.88784         0.999511        -4.88784        0.0123317         117.906
0.1749                0.00675221        -1.96871         0.999495        -5.04063         0.999495        -5.04063        0.0124597         117.271
0.1802                0.00674702        -0.71795         0.999479        -5.19342         0.999479        -5.19342        0.0125881         116.645
0.1855                 0.0067454        0.534419         0.999463        -5.34622         0.999463        -5.34622        0.0127171         116.025
0.1908                0.00674736         1.78699         0.999447        -5.49901         0.999447        -5.49901        0.0128466         115.414
0.1961                0.00675287         3.03838         0.999431         -5.6518         0.999431         -5.6518        0.0129766         114.809
0.2014                0.00676193         4.28721         0.999415        -5.80459         0.999415        -5.80459        0.0131071         114.211
0.2067                0.00677452         5.53211         0.999398        -5.95739         0.999398        -5.95739         0.013238          113.62
0.212                 0.00679064         6.77174         0.999382        -6.11018         0.999382        -6.11018        0.0133694         113.036
0.2173                0.00681029         8.00476         0.999366        -6.26298         0.999366        -6.26298        0.0135012         112.458
0.2226                 0.0068334         9.22992         0.999349        -6.41577         0.999349        -6.41577        0.0136334         111.887
0.2279                0.00685994          10.446         0.999333        -6.56857         0.999333        -6.56857         0.013766         111.321
0.2332                0.00688989         11.6519         0.999316        -6.72136         0.999316        -6.72136         0.013899         110.762
0.2385                0.00692319         12.8464           0.9993        -6.87416           0.9993        -6.87416        0.0140325         110.208
0.2438                0.00695984         14.0285         0.999283        -7.02696         0.999283        -7.02696        0.0141662          109.66
0.2491                0.00699974         15.1972         0.999267        -7.17975         0.999267        -7.17975        0.0143004         109.118
0.2544                0.00704284         16.3516          0.99925        -7.33255          0.99925        -7.33255        0.0144349         108.581
0.2597                 0.0070891         17.4909         0.999233        -7.48535         0.999233        -7.48535        0.0145697         108.049
0.265                 0.00713846         18.6143         0.999216        -7.63814         0.999216        -7.63814        0.0147049         107.522
0.2703                0.00719087         19.7211         0.999199        -7.79094         0.999199        -7.79094        0.0148404         107.001
0.2756                0.00724624         20.8108         0.999183        -7.94374         0.999183        -7.94374        0.0149762         106.484
0.2809                0.00730452         21.8827         0.999166        -8.09654         0.999166        -8.09654        0.0151124         105.972
0.2862                0.00736563         22.9365         0.999148        -8.24934         0.999148        -8.24934        0.0152488         105.464
0.2915                0.00742952         23.9716         0.999131        -8.40214         0.999131        -8.40214        0.0153855         104.962
0.2968                0.00749612         24.9878         0.999114        -8.55493         0.999114        -8.55493        0.0155225         104.463
0.3021                0.00756535         25.9848         0.999097        -8.70773         0.999097        -8.70773        0.0156598         103.969
0.3074                0.00763714         26.9625          0.99908        -8.86053          0.99908        -8.86053        0.0157974         103.479
0.3127                0.00771143         27.9206         0.999062        -9.01333         0.999062        -9.01333        0.0159352         102.993
0.318                 0.00778814         28.8592         0.999045        -9.16613         0.999045        -9.16613        0.0160733         102.511
0.3233                0.00786722          29.778         0.999027        -9.31893         0.999027        -9.31893        0.0162116         102.033
0.3286                0.00794859         30.6772          0.99901        -9.47173          0.99901        -9.47173        0.0163502         101.559
0.3339                0.00803217         31.5568         0.998992        -9.62453         0.998992        -9.62453         0.016489         101.088
0.3392                 0.0081179         32.4169         0.998975        -9.77733         0.998975        -9.77733         0.016628         100.621
0.3445                0.00820573         33.2577         0.998957        -9.93013         0.998957        -9.93013        0.0167673         100.158
0.3498                 0.0082956         34.0792         0.998939        -10.0829         0.998939        -10.0829        0.0169068          99.698
0.3551                0.00838742         34.8817         0.998922        -10.2357         0.998922        -10.2357        0.0170465         99.2415
0.3604                0.00848114         35.6654         0.998904        -10.3885         0.998904        -10.3885        0.0171864         98.7884
0.3657                 0.0085767         36.4307         0.998886        -10.5413         0.998886        -10.5413        0.0173266         98.3384
0.371                 0.00867404         37.1776         0.998868        -10.6941         0.998868        -10.6941        0.0174669         97.8916
0.3763                0.00877312         37.9065          0.99885        -10.8469          0.99885        -10.8469        0.0176074         97.4479
0.3816                0.00887387         38.6177         0.998832        -10.9997         0.998832        -10.9997        0.0177482         97.0072
0.3869                0.00897623         39.3115         0.998814        -11.1525         0.998814        -11.1525        0.0178891         96.5695
0.3922                0.00908015         39.9883         0.998795        -11.3053         0.998795        -11.3053        0.0180302         96.1346
0.3975                0.00918558         40.6484         0.998777        -11.4581         0.998777        -11.4581        0.0181715         95.7026
0.4028                0.00929248         41.2919         0.998759        -11.6109         0.998759        -11.6109        0.0183129         95.2733
0.4081                 0.0094008         41.9195          0.99874        -11.7637          0.99874        -11.7637        0.0184546         94.8468
0.4134                0.00951048         42.5313         0.998722        -11.9165         0.998722        -11.9165        0.0185964         94.4229
0.4187                0.00962149         43.1278         0.998703        -12.0693         0.998703        -12.0693        0.0187383         94.0015
0.424                 0.00973378         43.7092         0.998685        -12.2221         0.998685        -12.2221        0.0188805         93.5827
0.4293                0.00984732         44.2759         0.998666        -12.3749         0.998666        -12.3749        0.0190228         93.1664
0.4346                0.00996205         44.8283         0.998648        -12.5278         0.998648        -12.5278        0.0191652         92.7525
0.4399                 0.0100779         45.3668         0.998629        -12.6806         0.998629        -12.6806        0.0193079          92.341
0.4452                  0.010195         45.8916          0.99861        -12.8334          0.99861        -12.8334        0.0194506         91.9318
0.4505                 0.0103131         46.4031         0.998591        -12.9862         0.998591        -12.9862        0.0195935         91.5248
0.4558                 0.0104322         46.9015         0.998572         -13.139         0.998572         -13.139        0.0197366         91.1201
0.4611                 0.0105524         47.3873         0.998554        -13.2918         0.998554        -13.2918        0.0198798         90.7176
0.4664                 0.0106735         47.8608         0.998535        -13.4446         0.998535        -13.4446        0.0200232         90.3172
0.4717                 0.0107957         48.3223         0.998516        -13.5974         0.998516        -13.5974        0.0201666          89.919
0.477                  0.0109187         48.7721         0.998496        -13.7502         0.998496        -13.7502        0.0203103         89.5227
0.4823                 0.0110426         49.2104         0.998477         -13.903         0.998477         -13.903         0.020454         89.1285
0.4876                 0.0111675         49.6377         0.998458        -14.0558         0.998458        -14.0558        0.0205979         88.7363
0.4929                 0.0112931         50.0541         0.998439        -14.2086         0.998439        -14.2086        0.0207419          88.346
0.4982                 0.0114196         50.4601         0.998419        -14.3614         0.998419        -14.3614        0.0208861         87.9575
0.5035                 0.0115468         50.8558           0.9984        -14.5142           0.9984        -14.5142        0.0210303          87.571
0.5088                 0.0116748         51.2414         0.998381         -14.667         0.998381         -14.667        0.0211747         87.1863
0.5141                 0.0118036         51.6174         0.998361        -14.8198         0.998361        -14.8198        0.0213193         86.8033
0.5194                 0.0119331          51.984         0.998341        -14.9726         0.998341        -14.9726        0.0214639         86.4221
0.5247                 0.0120633         52.3413         0.998322        -15.1254         0.998322        -15.1254        0.0216087         86.0426
0.53                   0.0121942         52.6897         0.998302        -15.2782         0.998302        -15.2782        0.0217535         85.6648
0.5353                 0.0123257         53.0294         0.998282         -15.431         0.998282         -15.431        0.0218985         85.2887
0.5406                 0.0124579         53.3606         0.998263        -15.5838         0.998263        -15.5838        0.0220436         84.9142
0.5459                 0.0125907         53.6835         0.998243        -15.7366         0.998243        -15.7366        0.0221888         84.5413
0.5512                 0.0127241         53.9984         0.998223        -15.8894         0.998223        -15.8894        0.0223341         84.1699
0.5565                 0.0128581         54.3055         0.998203        -16.0422         0.998203        -16.0422        0.0224795         83.8001
0.5618                 0.0129927         54.6049         0.998183         -16.195         0.998183         -16.195        0.0226251         83.4318
0.5671                 0.0131278         54.8969         0.998163        -16.3478         0.998163        -16.3478        0.0227707          83.065
0.5724                 0.0132635         55.1817         0.998143        -16.5006         0.998143        -16.5006        0.0229165         82.6996
0.5777                 0.0133997         55.4595         0.998122        -16.6534         0.998122        -16.6534        0.0230623         82.3356
0.583                  0.0135364         55.7305         0.998102        -16.8062         0.998102        -16.8062        0.0232082         81.9731
0.5883                 0.0136736         55.9947         0.998082         -16.959         0.998082         -16.959        0.0233543         81.6119
0.5936                 0.0138113         56.2524         0.998061        -17.1118         0.998061        -17.1118        0.0235004         81.2521
0.5989                 0.0139495         56.5039         0.998041        -17.2646         0.998041        -17.2646        0.0236467         80.8936
0.6042                 0.0140881         56.7492          0.99802        -17.4174          0.99802        -17.4174         0.023793         80.5364
0.6095                 0.0142272         56.9885            0.998        -17.5702            0.998        -17.5702        0.0239394         80.1805
0.6148                 0.0143667         57.2219         0.997979         -17.723         0.997979         -17.723         0.024086         79.8258
0.6201                 0.0145067         57.4496         0.997959        -17.8758         0.997959        -17.8758        0.0242326         79.4724
0.6254                 0.0146471         57.6717         0.997938        -18.0286         0.997938        -18.0286        0.0243793         79.1202
0.6307                 0.0147879         57.8885         0.997917        -18.1815         0.997917        -18.1815        0.0245261         78.7692
0.636                   0.014929            58.1         0.997896        -18.3343         0.997896        -18.3343         0.024673         78.4194
0.6413                 0.0150706         58.3063         0.997875        -18.4871         0.997875        -18.4871          0.02482         78.0707
0.6466                 0.0152126         58.5076         0.997854        -18.6399         0.997854        -18.6399        0.0249671         77.7232
0.6519                 0.0153549          58.704         0.997833        -18.7927         0.997833        -18.7927        0.0251142         77.3768
0.6572                 0.0154976         58.8956         0.997812        -18.9455         0.997812        -18.9455        0.0252615         77.0315
0.6625                 0.0156406         59.0826         0.997791        -19.0983         0.997791        -19.0983        0.0254088         76.6873
0.6678                  0.015784          59.265          0.99777        -19.2511          0.99777        -19.2511        0.0255562         76.3441
0.6731                 0.0159278          59.443         0.997749        -19.4039         0.997749        -19.4039        0.0257037          76.002
0.6784                 0.0160718         59.6167         0.997727        -19.5567         0.997727        -19.5567        0.0258513         75.6609
0.6837                 0.0162162         59.7862         0.997706        -19.7095         0.997706        -19.7095         0.025999         75.3208
0.689                  0.0163609         59.9516         0.997685        -19.8623         0.997685        -19.8623        0.0261467         74.9817
0.6943                  0.016506         60.1129         0.997663        -20.0151         0.997663        -20.0151        0.0262945         74.6437
0.6996                 0.0166513         60.2703         0.997642        -20.1679         0.997642        -20.1679        0.0264425         74.3066
0.7049                 0.0167969         60.4239          0.99762        -20.3207          0.99762        -20.3207        0.0265905         73.9704
0.7102                 0.0169428         60.5737         0.997598        -20.4735         0.997598        -20.4735        0.0267385         73.6351
0.7155                  0.017089         60.7199         0.997577        -20.6263         0.997577        -20.6263        0.0268867         73.3008
0.7208                 0.0172355         60.8625         0.997555        -20.7791         0.997555        -20.7791        0.0270349         72.9674
0.7261                 0.0173823         61.0016         0.997533        -20.9319         0.997533        -20.9319        0.0271832         72.6349
0.7314                 0.0175293         61.1373         0.997511        -21.0847         0.997511        -21.0847        0.0273316         72.3033
0.7367                 0.0176766         61.2697         0.997489        -21.2375         0.997489        -21.2375          0.02748         71.9725
0.742                  0.0178242         61.3988         0.997467        -21.3903         0.997467        -21.3903        0.0276286         71.6426
0.7473                  0.017972         61.5247         0.997445        -21.5431         0.997445        -21.5431        0.0277772         71.3136
0.7526                 0.0181201         61.6476         0.997423        -21.6959         0.997423        -21.6959        0.0279259         70.9853
0.7579                 0.0182684         61.7674         0.997401        -21.8487         0.997401        -21.8487        0.0280746         70.6579
0.7632                  0.018417         61.8842         0.997379        -22.0015         0.997379        -22.0015        0.0282235         70.3313
0.7685                 0.0185658         61.9981         0.997356        -22.1543         0.997356        -22.1543        0.0283724         70.0054
0.7738                 0.0187148         62.1091         0.997334        -22.3071         0.997334        -22.3071        0.0285214         69.6804
0.7791                 0.0188641         62.2174         0.997312        -22.4599         0.997312        -22.4599        0.0286704         69.3562
0.7844                 0.0190136          62.323         0.997289        -22.6127         0.997289        -22.6127        0.0288196         69.0326
0.7897                 0.0191633         62.4259         0.997267        -22.7655         0.997267        -22.7655        0.0289688         68.7099
0.795                  0.0193132         62.5262         0.997244        -22.9183         0.997244        -22.9183         0.029118         68.3878
0.8003                 0.0194634         62.6239         0.997221        -23.0711         0.997221        -23.0711        0.0292674         68.0666
0.8056                 0.0196137         62.7191         0.997199        -23.2239         0.997199        -23.2239        0.0294168          67.746
0.8109                 0.0197643         62.8119         0.997176        -23.3767         0.997176        -23.3767        0.0295663         67.4261
0.8162                 0.0199151         62.9023         0.997153        -23.5295         0.997153        -23.5295        0.0297158         67.1069
0.8215                 0.0200661         62.9903          0.99713        -23.6823          0.99713        -23.6823        0.0298654         66.7884
0.8268                 0.0202173         63.0761         0.997107        -23.8351         0.997107        -23.8351        0.0300151         66.4707
0.8321                 0.0203687         63.1595         0.997084        -23.9879         0.997084        -23.9879        0.0301649         66.1535
0.8374                 0.0205203         63.2408         0.997061        -24.1407         0.997061        -24.1407        0.0303147         65.8371
0.8427                  0.020672           63.32         0.997038        -24.2935         0.997038        -24.2935        0.0304646         65.5212
0.848                   0.020824          63.397         0.997015        -24.4463         0.997015        -24.4463        0.0306146          65.206
0.8533                 0.0209761         63.4719         0.996992        -24.5991         0.996992        -24.5991        0.0307646         64.8915
0.8586                 0.0211285         63.5448         0.996968        -24.7519         0.996968        -24.7519        0.0309147         64.5776
0.8639                  0.021281         63.6157         0.996945        -24.9047         0.996945        -24.9047        0.0310649         64.2643
0.8692                 0.0214337         63.6847         0.996922        -25.0575         0.996922        -25.0575        0.0312152         63.9516
0.8745                 0.0215866         63.7518         0.996898        -25.2103         0.996898        -25.2103        0.0313655         63.6395
0.8798                 0.0217396         63.8169         0.996875        -25.3631         0.996875        -25.3631        0.0315158          63.328
0.8851                 0.0218928         63.8802         0.996851        -25.5159         0.996851        -25.5159        0.0316663         63.0171
0.8904                 0.0220462         63.9417         0.996828        -25.6687         0.996828        -25.6687        0.0318168         62.7068
0.8957                 0.0221998         64.0015         0.996804        -25.8215         0.996804        -25.8215        0.0319674          62.397
0.901                  0.0223535         64.0595          0.99678        -25.9743          0.99678        -25.9743         0.032118         62.0878
0.9063                 0.0225074         64.1158         0.996756        -26.1271         0.996756        -26.1271        0.0322687         61.7792
0.9116                 0.0226615         64.1704         0.996732        -26.2799         0.996732        -26.2799        0.0324195         61.4711
0.9169                 0.0228157         64.2234         0.996708        -26.4327         0.996708        -26.4327        0.0325703         61.1636
0.9222                 0.0229701         64.2747         0.996684        -26.5855         0.996684        -26.5855        0.0327212         60.8566
0.9275                 0.0231246         64.3245          0.99666        -26.7383          0.99666        -26.7383        0.0328722         60.5501
0.9328                 0.0232793         64.3727         0.996636        -26.8911         0.996636        -26.8911        0.0330232         60.2442
0.9381                 0.0234341         64.4194         0.996612        -27.0439         0.996612        -27.0439        0.0331743         59.9387
0.9434                 0.0235891         64.4646         0.996588        -27.1967         0.996588        -27.1967        0.0333255         59.6338
0.9487                 0.0237443         64.5083         0.996564        -27.3495         0.996564        -27.3495        0.0334767         59.3294
0.954                  0.0238996         64.5506         0.996539        -27.5023         0.996539        -27.5023         0.033628         59.0255
0.9593                  0.024055         64.5915         0.996515        -27.6551         0.996515        -27.6551        0.0337793         58.7221
0.9646                 0.0242106         64.6309          0.99649        -27.8079          0.99649        -27.8079        0.0339308         58.4192
0.9699                 0.0243664          64.669         0.996466        -27.9607         0.996466        -27.9607        0.0340822         58.1167
0.9752                 0.0245222         64.7058         0.996441        -28.1135         0.996441        -28.1135        0.0342338         57.8147
0.9805                 0.0246783         64.7412         0.996417        -28.2663         0.996417        -28.2663        0.0343854         57.5132
0.9858                 0.0248344         64.7753         0.996392        -28.4191         0.996392        -28.4191        0.0345371         57.2122
0.9911                 0.0249907         64.8082         0.996367        -28.5719         0.996367        -28.5719        0.0346888         56.9116
0.9964                 0.0251472         64.8398         0.996342        -28.7247         0.996342        -28.7247        0.0348406         56.6115