! TOUCHSTONE file generated by CST MICROWAVE STUDIO
! Date and time: Tue Jan  7 09:43:09 2020
! Project name: OSHPark_FR408_Transition2.cst
! Parameters = {GND_Plane_XMax=12.5; Cap_Disk_XOffset=0; Cap_Disk2_YCenter=-1.03; Cap_Disk_YCenter=1.03; Cap_Disk_XCenter=7.39; Cap_Disk_Radius=0.5; BottomSupport_Left_YMax=4.76; BottomSupport_Left_YMin=3.74; BottomSupport_Right_YMax=-3.74; BottomSupport_Right_YMin=-4.76; BottomSupport_XMax=11.64; BottomSupport_XMin=6.89; BottomSupport_ZMax=-1.64084; BottomSupport_ZMin=-3.58; Cu1_Thickness=0.03556; Cu2_Thickness=0.01778; Fr408Core_Thickness=1.1938; GND_Plane_Offset=2.8; PCBThickness=1.6256; Prepreg1_Zmin=-0.20574; Prepreg_Thickness=0.17018; RFTraceYMax=0.17145; RFTrace_XMax=15; RFTrace_XMin=11.46; RFTrace_YMin=-0.17145; SMA_CenterCond_Inner_XMax=11.64; SMA_CenterCond_Radius=0.6; SMA_Dielectric_InnerRadius=0.6; SMA_Dielectric_OuterRadius=2; SMA_Dielectric_XMax=5.62; SMA_Dielectric_XMin=0; SMA_Dielectric_YCenter=0; SMA_Dielectric_ZCenter=0; SMA_Footprint_Center_XMax=12.49; SMA_Footprint_Center_XMin=7.74; SMA_Footprint_Center_YMax=0.75; SMA_Footprint_Center_YMin=-0.75; SMA_OuterCond_InnerRadius=2; SMA_OuterCond_OuterRadius=3; SMA_OuterCond_XMax=6.89; SMA_XMax=6.67; SMA_XMin=0; SMA_YCenter=0; SMA_ZCenter=0; TopSupport_ZMax=1.02; TopSupport_ZMin=0; Via1_XCenter=7.5; Via1_YCenter=-4.25; Via2_XCenter=8.75; Via2_YCenter=-4.25; Via3_XCenter=10; Via3_YCenter=-4.25; Via4_XCenter=11.25; Via4_YCenter=-4.25; Via5_XCenter=7.5; Via5_YCenter=4.25; Via6_XCenter=8.75; Via6_YCenter=4.25; Via7_XCenter=10; Via7_YCenter=4.25; Via8_XCenter=11.25; Via8_YCenter=4.25; ViaInnerRadius=0; ViaOuterRadius=0.381}
! Header version: 2015
! Port assignment regex: !\s*Touchstone port\s*([0-9]+)\s*=\s*CST MWS port\s*([0-9]+)\s*\(\"(.*)\"\)(\s*mode\s*([0-9]+))?.*
! Touchstone port assignment:
! Touchstone port 1 = CST MWS port 1 ("")
! Touchstone port 2 = CST MWS port 2 ("")
# GHz S MA R 50
0                      0.0425424               0         0.966745               0         0.966745               0        0.0239062               0
0.0053                 0.0121768        -23.5666         0.999938       -0.158908         0.999938       -0.158908        0.0124109         154.072
0.0106                 0.0121718        -23.6784         0.999923       -0.305603         0.999923       -0.305603        0.0124117         153.883
0.0159                 0.0121464        -23.5267         0.999908       -0.455738         0.999908       -0.455738        0.0124427          153.45
0.0212                 0.0121145        -23.3112         0.999894       -0.606735         0.999894       -0.606735        0.0124798         152.953
0.0265                 0.0120795        -23.0703         0.999879       -0.758076         0.999879       -0.758076        0.0125188         152.431
0.0318                 0.0120443        -22.8134         0.999865        -0.90959         0.999865        -0.90959          0.01256           151.9
0.0371                 0.0120079        -22.5487          0.99985         -1.0612          0.99985         -1.0612        0.0126014         151.362
0.0424                 0.0119691        -22.2818         0.999836        -1.21288         0.999836        -1.21288        0.0126414         150.816
0.0477                 0.0119313        -22.0081         0.999822        -1.36459         0.999822        -1.36459        0.0126827         150.271
0.053                  0.0118944        -21.7285         0.999807        -1.51633         0.999807        -1.51633        0.0127253         149.727
0.0583                 0.0118589        -21.4431         0.999792         -1.6681         0.999792         -1.6681        0.0127693         149.186
0.0636                 0.0118233         -21.155         0.999778        -1.81988         0.999778        -1.81988        0.0128134         148.645
0.0689                 0.0117877        -20.8645         0.999763        -1.97167         0.999763        -1.97167        0.0128576         148.105
0.0742                 0.0117524        -20.5712         0.999748        -2.12347         0.999748        -2.12347        0.0129021         147.566
0.0795                 0.0117176         -20.275         0.999734        -2.27528         0.999734        -2.27528        0.0129469         147.028
0.0848                 0.0116832         -19.976         0.999719         -2.4271         0.999719         -2.4271        0.0129921         146.492
0.0901                 0.0116492        -19.6743         0.999704        -2.57892         0.999704        -2.57892        0.0130377         145.957
0.0954                 0.0116156        -19.3703         0.999689        -2.73075         0.999689        -2.73075        0.0130835         145.424
0.1007                 0.0115825        -19.0637         0.999675        -2.88257         0.999675        -2.88257        0.0131296         144.893
0.106                  0.0115498        -18.7547          0.99966        -3.03441          0.99966        -3.03441        0.0131761         144.363
0.1113                 0.0115175        -18.4433         0.999645        -3.18624         0.999645        -3.18624        0.0132228         143.836
0.1166                 0.0114857        -18.1295          0.99963        -3.33808          0.99963        -3.33808        0.0132698         143.309
0.1219                 0.0114544        -17.8134         0.999615        -3.48992         0.999615        -3.48992        0.0133171         142.785
0.1272                 0.0114235         -17.495           0.9996        -3.64176           0.9996        -3.64176        0.0133646         142.262
0.1325                 0.0113931        -17.1743         0.999585         -3.7936         0.999585         -3.7936        0.0134124         141.741
0.1378                 0.0113632        -16.8514          0.99957        -3.94544          0.99957        -3.94544        0.0134605         141.222
0.1431                 0.0113337        -16.5262         0.999555        -4.09729         0.999555        -4.09729        0.0135089         140.705
0.1484                 0.0113048        -16.1988         0.999539        -4.24914         0.999539        -4.24914        0.0135575         140.189
0.1537                 0.0112763        -15.8692         0.999524        -4.40098         0.999524        -4.40098        0.0136063         139.675
0.159                  0.0112483        -15.5375         0.999509        -4.55283         0.999509        -4.55283        0.0136555         139.163
0.1643                 0.0112209        -15.2036         0.999494        -4.70468         0.999494        -4.70468        0.0137048         138.653
0.1696                  0.011194        -14.8676         0.999478        -4.85653         0.999478        -4.85653        0.0137544         138.144
0.1749                 0.0111675        -14.5295         0.999463        -5.00838         0.999463        -5.00838        0.0138043         137.637
0.1802                 0.0111416        -14.1893         0.999448        -5.16023         0.999448        -5.16023        0.0138544         137.132
0.1855                 0.0111163        -13.8471         0.999432        -5.31209         0.999432        -5.31209        0.0139047         136.628
0.1908                 0.0110914        -13.5028         0.999417        -5.46394         0.999417        -5.46394        0.0139553         136.126
0.1961                 0.0110671        -13.1566         0.999401        -5.61579         0.999401        -5.61579        0.0140061         135.626
0.2014                 0.0110434        -12.8083         0.999386        -5.76764         0.999386        -5.76764        0.0140571         135.127
0.2067                 0.0110201        -12.4582          0.99937         -5.9195          0.99937         -5.9195        0.0141084          134.63
0.212                  0.0109974         -12.106         0.999355        -6.07135         0.999355        -6.07135        0.0141599         134.135
0.2173                 0.0109753         -11.752         0.999339        -6.22321         0.999339        -6.22321        0.0142116         133.641
0.2226                 0.0109538        -11.3962         0.999324        -6.37506         0.999324        -6.37506        0.0142635         133.149
0.2279                 0.0109328        -11.0384         0.999308        -6.52692         0.999308        -6.52692        0.0143157         132.658
0.2332                 0.0109123        -10.6789         0.999292        -6.67878         0.999292        -6.67878        0.0143681          132.17
0.2385                 0.0108925        -10.3176         0.999276        -6.83063         0.999276        -6.83063        0.0144207         131.682
0.2438                 0.0108732        -9.95459         0.999261        -6.98249         0.999261        -6.98249        0.0144735         131.196
0.2491                 0.0108545        -9.58983         0.999245        -7.13435         0.999245        -7.13435        0.0145265         130.712
0.2544                 0.0108364        -9.22341         0.999229        -7.28621         0.999229        -7.28621        0.0145797          130.23
0.2597                 0.0108188        -8.85534         0.999213        -7.43806         0.999213        -7.43806        0.0146332         129.749
0.265                  0.0108019        -8.48567         0.999197        -7.58992         0.999197        -7.58992        0.0146868         129.269
0.2703                 0.0107855        -8.11443         0.999181        -7.74178         0.999181        -7.74178        0.0147407         128.791
0.2756                 0.0107698        -7.74166         0.999165        -7.89364         0.999165        -7.89364        0.0147948         128.314
0.2809                 0.0107547         -7.3674         0.999149         -8.0455         0.999149         -8.0455         0.014849         127.839
0.2862                 0.0107401        -6.99169         0.999133        -8.19736         0.999133        -8.19736        0.0149035         127.366
0.2915                 0.0107262        -6.61457         0.999117        -8.34922         0.999117        -8.34922        0.0149581         126.894
0.2968                 0.0107129        -6.23608         0.999101        -8.50108         0.999101        -8.50108         0.015013         126.423
0.3021                 0.0107002        -5.85627         0.999085        -8.65294         0.999085        -8.65294        0.0150681         125.954
0.3074                 0.0106882        -5.47517         0.999068         -8.8048         0.999068         -8.8048        0.0151233         125.486
0.3127                 0.0106767        -5.09284         0.999052        -8.95666         0.999052        -8.95666        0.0151788          125.02
0.318                  0.0106659        -4.70931         0.999036        -9.10852         0.999036        -9.10852        0.0152344         124.555
0.3233                 0.0106558        -4.32464          0.99902        -9.26038          0.99902        -9.26038        0.0152903         124.091
0.3286                 0.0106462        -3.93886         0.999003        -9.41224         0.999003        -9.41224        0.0153463         123.629
0.3339                 0.0106373        -3.55203         0.998987         -9.5641         0.998987         -9.5641        0.0154025         123.168
0.3392                 0.0106291         -3.1642          0.99897        -9.71596          0.99897        -9.71596        0.0154589         122.709
0.3445                 0.0106215        -2.77542         0.998954        -9.86783         0.998954        -9.86783        0.0155155         122.251
0.3498                 0.0106145        -2.38573         0.998937        -10.0197         0.998937        -10.0197        0.0155722         121.794
0.3551                 0.0106082        -1.99519         0.998921        -10.1716         0.998921        -10.1716        0.0156292         121.339
0.3604                 0.0106026        -1.60384         0.998904        -10.3234         0.998904        -10.3234        0.0156863         120.885
0.3657                 0.0105976        -1.21174         0.998888        -10.4753         0.998888        -10.4753        0.0157437         120.432
0.371                  0.0105932       -0.818936         0.998871        -10.6271         0.998871        -10.6271        0.0158011         119.981
0.3763                 0.0105896       -0.425494         0.998854         -10.779         0.998854         -10.779        0.0158588          119.53
0.3816                 0.0105866      -0.0314591         0.998838        -10.9309         0.998838        -10.9309        0.0159167         119.082
0.3869                 0.0105842        0.363118         0.998821        -11.0827         0.998821        -11.0827        0.0159747         118.634
0.3922                 0.0105825        0.758179         0.998804        -11.2346         0.998804        -11.2346        0.0160329         118.188
0.3975                 0.0105815         1.15367         0.998787        -11.3865         0.998787        -11.3865        0.0160913         117.742
0.4028                 0.0105812         1.54953         0.998771        -11.5383         0.998771        -11.5383        0.0161499         117.299
0.4081                 0.0105816         1.94571         0.998754        -11.6902         0.998754        -11.6902        0.0162086         116.856
0.4134                 0.0105826         2.34216         0.998737         -11.842         0.998737         -11.842        0.0162675         116.414
0.4187                 0.0105843         2.73881          0.99872        -11.9939          0.99872        -11.9939        0.0163266         115.974
0.424                  0.0105867         3.13561         0.998703        -12.1458         0.998703        -12.1458        0.0163858         115.535
0.4293                 0.0105897          3.5325         0.998686        -12.2976         0.998686        -12.2976        0.0164453         115.097
0.4346                 0.0105935         3.92943         0.998669        -12.4495         0.998669        -12.4495        0.0165049         114.661
0.4399                 0.0105979         4.32634         0.998652        -12.6014         0.998652        -12.6014        0.0165646         114.225
0.4452                  0.010603         4.72318         0.998634        -12.7532         0.998634        -12.7532        0.0166245         113.791
0.4505                 0.0106088         5.11989         0.998617        -12.9051         0.998617        -12.9051        0.0166846         113.358
0.4558                 0.0106153         5.51639           0.9986         -13.057           0.9986         -13.057        0.0167449         112.925
0.4611                 0.0106225         5.91265         0.998583        -13.2088         0.998583        -13.2088        0.0168053         112.495
0.4664                 0.0106303         6.30861         0.998566        -13.3607         0.998566        -13.3607        0.0168659         112.065
0.4717                 0.0106388         6.70422         0.998548        -13.5126         0.998548        -13.5126        0.0169266         111.636
0.477                  0.0106481          7.0994         0.998531        -13.6644         0.998531        -13.6644        0.0169876         111.208
0.4823                  0.010658         7.49411         0.998513        -13.8163         0.998513        -13.8163        0.0170486         110.782
0.4876                 0.0106686         7.88828         0.998496        -13.9682         0.998496        -13.9682        0.0171099         110.356
0.4929                 0.0106799         8.28188         0.998479          -14.12         0.998479          -14.12        0.0171713         109.932
0.4982                 0.0106919         8.67484         0.998461        -14.2719         0.998461        -14.2719        0.0172329         109.509
0.5035                 0.0107045         9.06711         0.998444        -14.4238         0.998444        -14.4238        0.0172946         109.086
0.5088                 0.0107179         9.45862         0.998426        -14.5756         0.998426        -14.5756        0.0173565         108.665
0.5141                  0.010732         9.84932         0.998408        -14.7275         0.998408        -14.7275        0.0174185         108.245
0.5194                 0.0107467         10.2392         0.998391        -14.8794         0.998391        -14.8794        0.0174807         107.826
0.5247                 0.0107621         10.6281         0.998373        -15.0312         0.998373        -15.0312        0.0175431         107.408
0.53                   0.0107782         11.0161         0.998355        -15.1831         0.998355        -15.1831        0.0176056         106.991
0.5353                  0.010795         11.4031         0.998338         -15.335         0.998338         -15.335        0.0176683         106.575
0.5406                 0.0108125          11.789          0.99832        -15.4868          0.99832        -15.4868        0.0177311          106.16
0.5459                 0.0108306         12.1738         0.998302        -15.6387         0.998302        -15.6387        0.0177941         105.746
0.5512                 0.0108494         12.5574         0.998284        -15.7906         0.998284        -15.7906        0.0178572         105.332
0.5565                 0.0108689         12.9399         0.998266        -15.9425         0.998266        -15.9425        0.0179205          104.92
0.5618                 0.0108891          13.321         0.998248        -16.0943         0.998248        -16.0943         0.017984         104.509
0.5671                   0.01091         13.7009          0.99823        -16.2462          0.99823        -16.2462        0.0180476         104.099
0.5724                 0.0109315         14.0794         0.998212        -16.3981         0.998212        -16.3981        0.0181114          103.69
0.5777                 0.0109537         14.4565         0.998194        -16.5499         0.998194        -16.5499        0.0181753         103.281
0.583                  0.0109766         14.8321         0.998176        -16.7018         0.998176        -16.7018        0.0182394         102.874
0.5883                 0.0110002         15.2063         0.998158        -16.8537         0.998158        -16.8537        0.0183036         102.468
0.5936                 0.0110244         15.5789          0.99814        -17.0055          0.99814        -17.0055         0.018368         102.062
0.5989                 0.0110493           15.95         0.998122        -17.1574         0.998122        -17.1574        0.0184325         101.657
0.6042                 0.0110748         16.3194         0.998104        -17.3093         0.998104        -17.3093        0.0184972         101.254
0.6095                  0.011101         16.6872         0.998085        -17.4612         0.998085        -17.4612        0.0185621         100.851
0.6148                 0.0111279         17.0533         0.998067         -17.613         0.998067         -17.613        0.0186271         100.449
0.6201                 0.0111554         17.4177         0.998049        -17.7649         0.998049        -17.7649        0.0186922         100.048
0.6254                 0.0111836         17.7803         0.998031        -17.9168         0.998031        -17.9168        0.0187575         99.6478
0.6307                 0.0112125         18.1411         0.998012        -18.0686         0.998012        -18.0686         0.018823         99.2486
0.636                  0.0112419            18.5         0.997994        -18.2205         0.997994        -18.2205        0.0188886         98.8502
0.6413                 0.0112721         18.8571         0.997975        -18.3724         0.997975        -18.3724        0.0189543         98.4527
0.6466                 0.0113028         19.2122         0.997957        -18.5243         0.997957        -18.5243        0.0190202          98.056
0.6519                 0.0113342         19.5654         0.997938        -18.6761         0.997938        -18.6761        0.0190863         97.6602
0.6572                 0.0113663         19.9167          0.99792         -18.828          0.99792         -18.828        0.0191525         97.2652
0.6625                  0.011399         20.2659         0.997901        -18.9799         0.997901        -18.9799        0.0192188         96.8711
0.6678                 0.0114323         20.6131         0.997882        -19.1317         0.997882        -19.1317        0.0192853         96.4778
0.6731                 0.0114662         20.9583         0.997864        -19.2836         0.997864        -19.2836         0.019352         96.0853
0.6784                 0.0115008         21.3014         0.997845        -19.4355         0.997845        -19.4355        0.0194188         95.6936
0.6837                  0.011536         21.6423         0.997826        -19.5874         0.997826        -19.5874        0.0194857         95.3027
0.689                  0.0115718         21.9811         0.997807        -19.7392         0.997807        -19.7392        0.0195528         94.9127
0.6943                 0.0116082         22.3178         0.997789        -19.8911         0.997789        -19.8911        0.0196201         94.5234
0.6996                 0.0116453         22.6522          0.99777         -20.043          0.99777         -20.043        0.0196875          94.135
0.7049                 0.0116829         22.9845         0.997751        -20.1949         0.997751        -20.1949        0.0197551         93.7473
0.7102                 0.0117212         23.3145         0.997732        -20.3467         0.997732        -20.3467        0.0198228         93.3604
0.7155                   0.01176         23.6423         0.997713        -20.4986         0.997713        -20.4986        0.0198906         92.9743
0.7208                 0.0117995         23.9678         0.997694        -20.6505         0.997694        -20.6505        0.0199586          92.589
0.7261                 0.0118395         24.2911         0.997675        -20.8024         0.997675        -20.8024        0.0200268         92.2045
0.7314                 0.0118802          24.612         0.997656        -20.9542         0.997656        -20.9542         0.020095         91.8206
0.7367                 0.0119214         24.9307         0.997637        -21.1061         0.997637        -21.1061        0.0201635         91.4376
0.742                  0.0119632          25.247         0.997617         -21.258         0.997617         -21.258        0.0202321         91.0553
0.7473                 0.0120056         25.5609         0.997598        -21.4099         0.997598        -21.4099        0.0203008         90.6738
0.7526                 0.0120486         25.8725         0.997579        -21.5617         0.997579        -21.5617        0.0203697          90.293
0.7579                 0.0120922         26.1817          0.99756        -21.7136          0.99756        -21.7136        0.0204387         89.9129
0.7632                 0.0121363         26.4885          0.99754        -21.8655          0.99754        -21.8655        0.0205079         89.5336
0.7685                  0.012181          26.793         0.997521        -22.0174         0.997521        -22.0174        0.0205773         89.1549
0.7738                 0.0122262          27.095         0.997502        -22.1692         0.997502        -22.1692        0.0206468         88.7771
0.7791                 0.0122721         27.3946         0.997482        -22.3211         0.997482        -22.3211        0.0207164         88.3999
0.7844                 0.0123184         27.6919         0.997463         -22.473         0.997463         -22.473        0.0207862         88.0234
0.7897                 0.0123654         27.9867         0.997443        -22.6249         0.997443        -22.6249        0.0208561         87.6477
0.795                  0.0124128          28.279         0.997424        -22.7767         0.997424        -22.7767        0.0209262         87.2726
0.8003                 0.0124609         28.5689         0.997404        -22.9286         0.997404        -22.9286        0.0209964         86.8983
0.8056                 0.0125094         28.8564         0.997385        -23.0805         0.997385        -23.0805        0.0210668         86.5246
0.8109                 0.0125585         29.1415         0.997365        -23.2324         0.997365        -23.2324        0.0211373         86.1517
0.8162                 0.0126081         29.4241         0.997345        -23.3843         0.997345        -23.3843         0.021208         85.7794
0.8215                 0.0126583         29.7042         0.997326        -23.5361         0.997326        -23.5361        0.0212788         85.4078
0.8268                  0.012709         29.9819         0.997306         -23.688         0.997306         -23.688        0.0213497         85.0369
0.8321                 0.0127602         30.2571         0.997286        -23.8399         0.997286        -23.8399        0.0214209         84.6666
0.8374                  0.012812         30.5299         0.997266        -23.9918         0.997266        -23.9918        0.0214921          84.297
0.8427                 0.0128642         30.8002         0.997246        -24.1436         0.997246        -24.1436        0.0215635         83.9281
0.848                   0.012917         31.0681         0.997226        -24.2955         0.997226        -24.2955        0.0216351         83.5598
0.8533                 0.0129702         31.3335         0.997206        -24.4474         0.997206        -24.4474        0.0217068         83.1922
0.8586                  0.013024         31.5965         0.997186        -24.5993         0.997186        -24.5993        0.0217787         82.8253
0.8639                 0.0130783         31.8571         0.997166        -24.7512         0.997166        -24.7512        0.0218507          82.459
0.8692                 0.0131331         32.1152         0.997146         -24.903         0.997146         -24.903        0.0219228         82.0933
0.8745                 0.0131884         32.3708         0.997126        -25.0549         0.997126        -25.0549        0.0219951         81.7283
0.8798                 0.0132441          32.624         0.997106        -25.2068         0.997106        -25.2068        0.0220676         81.3639
0.8851                 0.0133004         32.8748         0.997086        -25.3587         0.997086        -25.3587        0.0221402         81.0002
0.8904                 0.0133571         33.1232         0.997066        -25.5106         0.997066        -25.5106        0.0222129          80.637
0.8957                 0.0134143         33.3691         0.997046        -25.6624         0.997046        -25.6624        0.0222858         80.2745
0.901                   0.013472         33.6127         0.997025        -25.8143         0.997025        -25.8143        0.0223589         79.9127
0.9063                 0.0135302         33.8538         0.997005        -25.9662         0.997005        -25.9662        0.0224321         79.5514
0.9116                 0.0135888         34.0925         0.996985        -26.1181         0.996985        -26.1181        0.0225054         79.1908
0.9169                 0.0136479         34.3289         0.996964          -26.27         0.996964          -26.27        0.0225789         78.8307
0.9222                 0.0137075         34.5629         0.996944        -26.4218         0.996944        -26.4218        0.0226526         78.4713
0.9275                 0.0137675         34.7945         0.996923        -26.5737         0.996923        -26.5737        0.0227264         78.1125
0.9328                  0.013828         35.0237         0.996903        -26.7256         0.996903        -26.7256        0.0228003         77.7542
0.9381                 0.0138889         35.2505         0.996882        -26.8775         0.996882        -26.8775        0.0228744         77.3966
0.9434                 0.0139503         35.4751         0.996862        -27.0294         0.996862        -27.0294        0.0229486         77.0396
0.9487                 0.0140121         35.6973         0.996841        -27.1812         0.996841        -27.1812         0.023023         76.6831
0.954                  0.0140744         35.9171          0.99682        -27.3331          0.99682        -27.3331        0.0230976         76.3273
0.9593                 0.0141371         36.1347           0.9968         -27.485           0.9968         -27.485        0.0231723          75.972
0.9646                 0.0142003         36.3499         0.996779        -27.6369         0.996779        -27.6369        0.0232471         75.6173
0.9699                 0.0142638         36.5629         0.996758        -27.7888         0.996758        -27.7888        0.0233221         75.2632
0.9752                 0.0143278         36.7735         0.996737        -27.9407         0.996737        -27.9407        0.0233973         74.9097
0.9805                 0.0143923         36.9819         0.996717        -28.0925         0.996717        -28.0925        0.0234726         74.5567
0.9858                 0.0144571          37.188         0.996696        -28.2444         0.996696        -28.2444         0.023548         74.2043
0.9911                 0.0145224         37.3919         0.996675        -28.3963         0.996675        -28.3963        0.0236236         73.8525
0.9964                 0.0145881         37.5936         0.996654        -28.5482         0.996654        -28.5482        0.0236994         73.5012