! TOUCHSTONE file generated by CST MICROWAVE STUDIO
! Date and time: Tue Jan  7 09:43:12 2020
! Project name: OSHPark_FR408_Transition2.cst
! Parameters = {GND_Plane_XMax=13; Cap_Disk_XOffset=0; Cap_Disk2_YCenter=-1.03; Cap_Disk_YCenter=1.03; Cap_Disk_XCenter=7.39; Cap_Disk_Radius=0.5; BottomSupport_Left_YMax=4.76; BottomSupport_Left_YMin=3.74; BottomSupport_Right_YMax=-3.74; BottomSupport_Right_YMin=-4.76; BottomSupport_XMax=11.64; BottomSupport_XMin=6.89; BottomSupport_ZMax=-1.64084; BottomSupport_ZMin=-3.58; Cu1_Thickness=0.03556; Cu2_Thickness=0.01778; Fr408Core_Thickness=1.1938; GND_Plane_Offset=2.8; PCBThickness=1.6256; Prepreg1_Zmin=-0.20574; Prepreg_Thickness=0.17018; RFTraceYMax=0.17145; RFTrace_XMax=15; RFTrace_XMin=11.46; RFTrace_YMin=-0.17145; SMA_CenterCond_Inner_XMax=11.64; SMA_CenterCond_Radius=0.6; SMA_Dielectric_InnerRadius=0.6; SMA_Dielectric_OuterRadius=2; SMA_Dielectric_XMax=5.62; SMA_Dielectric_XMin=0; SMA_Dielectric_YCenter=0; SMA_Dielectric_ZCenter=0; SMA_Footprint_Center_XMax=12.49; SMA_Footprint_Center_XMin=7.74; SMA_Footprint_Center_YMax=0.75; SMA_Footprint_Center_YMin=-0.75; SMA_OuterCond_InnerRadius=2; SMA_OuterCond_OuterRadius=3; SMA_OuterCond_XMax=6.89; SMA_XMax=6.67; SMA_XMin=0; SMA_YCenter=0; SMA_ZCenter=0; TopSupport_ZMax=1.02; TopSupport_ZMin=0; Via1_XCenter=7.5; Via1_YCenter=-4.25; Via2_XCenter=8.75; Via2_YCenter=-4.25; Via3_XCenter=10; Via3_YCenter=-4.25; Via4_XCenter=11.25; Via4_YCenter=-4.25; Via5_XCenter=7.5; Via5_YCenter=4.25; Via6_XCenter=8.75; Via6_YCenter=4.25; Via7_XCenter=10; Via7_YCenter=4.25; Via8_XCenter=11.25; Via8_YCenter=4.25; ViaInnerRadius=0; ViaOuterRadius=0.381}
! Header version: 2015
! Port assignment regex: !\s*Touchstone port\s*([0-9]+)\s*=\s*CST MWS port\s*([0-9]+)\s*\(\"(.*)\"\)(\s*mode\s*([0-9]+))?.*
! Touchstone port assignment:
! Touchstone port 1 = CST MWS port 1 ("")
! Touchstone port 2 = CST MWS port 2 ("")
# GHz S MA R 50
0                      0.0475723               0          0.96245               0          0.96245               0        0.0274486               0
0.0053                 0.0121505        -23.1879         0.999938       -0.159772         0.999938       -0.159772        0.0124511         153.753
0.0106                 0.0121198        -22.9267         0.999923       -0.307375         0.999923       -0.307375        0.0124932         153.232
0.0159                 0.0120561        -22.4256         0.999909       -0.458413         0.999909       -0.458413        0.0125531         152.443
0.0212                   0.01199        -21.8495         0.999895       -0.610308         0.999895       -0.610308        0.0126229         151.603
0.0265                 0.0119254        -21.2356         0.999881       -0.762546         0.999881       -0.762546        0.0126989          150.75
0.0318                 0.0118599        -20.6039         0.999867       -0.914957         0.999867       -0.914957        0.0127763         149.889
0.0371                 0.0117977         -19.953         0.999853        -1.06746         0.999853        -1.06746        0.0128579         149.034
0.0424                 0.0117429        -19.2791         0.999838        -1.22003         0.999838        -1.22003         0.012947         148.197
0.0477                 0.0116878        -18.5985         0.999824        -1.37264         0.999824        -1.37264        0.0130357          147.36
0.053                  0.0116324        -17.9118         0.999809        -1.52528         0.999809        -1.52528        0.0131242         146.524
0.0583                 0.0115761        -17.2208         0.999795        -1.67794         0.999795        -1.67794        0.0132117         145.688
0.0636                 0.0115226        -16.5197          0.99978        -1.83062          0.99978        -1.83062        0.0133015         144.861
0.0689                  0.011472        -15.8094         0.999766        -1.98331         0.999766        -1.98331        0.0133934         144.043
0.0742                 0.0114237        -15.0913         0.999751          -2.136         0.999751          -2.136        0.0134869         143.233
0.0795                 0.0113773        -14.3661         0.999736        -2.28871         0.999736        -2.28871        0.0135815          142.43
0.0848                 0.0113327        -13.6343         0.999722        -2.44142         0.999722        -2.44142        0.0136772         141.633
0.0901                 0.0112903        -12.8959         0.999707        -2.59414         0.999707        -2.59414        0.0137741         140.844
0.0954                 0.0112502         -12.151         0.999692        -2.74686         0.999692        -2.74686        0.0138723         140.062
0.1007                 0.0112122        -11.4002         0.999677        -2.89958         0.999677        -2.89958        0.0139717         139.287
0.106                  0.0111765        -10.6436         0.999662        -3.05231         0.999662        -3.05231        0.0140721          138.52
0.1113                  0.011143        -9.88174         0.999647        -3.20504         0.999647        -3.20504        0.0141737         137.759
0.1166                 0.0111117        -9.11473         0.999632        -3.35777         0.999632        -3.35777        0.0142763         137.006
0.1219                 0.0110828        -8.34293         0.999617        -3.51051         0.999617        -3.51051        0.0143799         136.259
0.1272                 0.0110562        -7.56667         0.999601        -3.66325         0.999601        -3.66325        0.0144846          135.52
0.1325                 0.0110319        -6.78631         0.999586        -3.81598         0.999586        -3.81598        0.0145903         134.787
0.1378                   0.01101        -6.00217         0.999571        -3.96872         0.999571        -3.96872         0.014697         134.061
0.1431                 0.0109904         -5.2146         0.999555        -4.12147         0.999555        -4.12147        0.0148046         133.342
0.1484                 0.0109732        -4.42395          0.99954        -4.27421          0.99954        -4.27421        0.0149132         132.629
0.1537                 0.0109584        -3.63059         0.999524        -4.42695         0.999524        -4.42695        0.0150227         131.923
0.159                  0.0109461        -2.83488         0.999509         -4.5797         0.999509         -4.5797        0.0151331         131.224
0.1643                 0.0109361         -2.0372         0.999493        -4.73244         0.999493        -4.73244        0.0152443          130.53
0.1696                 0.0109286        -1.23792         0.999477        -4.88519         0.999477        -4.88519        0.0153564         129.843
0.1749                 0.0109235       -0.437423         0.999462        -5.03794         0.999462        -5.03794        0.0154694         129.162
0.1802                 0.0109209         0.36391         0.999446        -5.19068         0.999446        -5.19068        0.0155831         128.487
0.1855                 0.0109207         1.16569          0.99943        -5.34343          0.99943        -5.34343        0.0156977         127.819
0.1908                 0.0109229         1.96753         0.999414        -5.49618         0.999414        -5.49618         0.015813         127.156
0.1961                 0.0109277         2.76905         0.999398        -5.64893         0.999398        -5.64893        0.0159292         126.499
0.2014                 0.0109348         3.56987         0.999382        -5.80168         0.999382        -5.80168         0.016046         125.847
0.2067                 0.0109444         4.36961         0.999366        -5.95443         0.999366        -5.95443        0.0161636         125.202
0.212                  0.0109564         5.16787         0.999349        -6.10718         0.999349        -6.10718        0.0162819         124.561
0.2173                 0.0109709         5.96429         0.999333        -6.25994         0.999333        -6.25994         0.016401         123.927
0.2226                 0.0109878          6.7585         0.999317        -6.41269         0.999317        -6.41269        0.0165207         123.298
0.2279                 0.0110071         7.55014           0.9993        -6.56544           0.9993        -6.56544         0.016641         122.674
0.2332                 0.0110289         8.33886         0.999284        -6.71819         0.999284        -6.71819        0.0167621         122.055
0.2385                  0.011053         9.12429         0.999267        -6.87095         0.999267        -6.87095        0.0168838         121.441
0.2438                 0.0110795         9.90609         0.999251         -7.0237         0.999251         -7.0237        0.0170061         120.832
0.2491                 0.0111084         10.6839         0.999234        -7.17646         0.999234        -7.17646        0.0171291         120.229
0.2544                 0.0111396         11.4575         0.999217        -7.32921         0.999217        -7.32921        0.0172526          119.63
0.2597                 0.0111732         12.2265         0.999201        -7.48197         0.999201        -7.48197        0.0173767         119.036
0.265                  0.0112091         12.9906         0.999184        -7.63472         0.999184        -7.63472        0.0175015         118.447
0.2703                 0.0112472         13.7495         0.999167        -7.78748         0.999167        -7.78748        0.0176268         117.862
0.2756                 0.0112877          14.503          0.99915        -7.94023          0.99915        -7.94023        0.0177526         117.282
0.2809                 0.0113304         15.2508         0.999133        -8.09299         0.999133        -8.09299        0.0178791         116.706
0.2862                 0.0113753         15.9926         0.999116        -8.24575         0.999116        -8.24575         0.018006         116.135
0.2915                 0.0114225         16.7282         0.999099         -8.3985         0.999099         -8.3985        0.0181335         115.568
0.2968                 0.0114718         17.4573         0.999082        -8.55126         0.999082        -8.55126        0.0182615         115.006
0.3021                 0.0115233         18.1798         0.999064        -8.70402         0.999064        -8.70402          0.01839         114.447
0.3074                 0.0115769         18.8954         0.999047        -8.85678         0.999047        -8.85678         0.018519         113.893
0.3127                 0.0116326         19.6041          0.99903        -9.00953          0.99903        -9.00953        0.0186484         113.342
0.318                  0.0116904         20.3055         0.999012        -9.16229         0.999012        -9.16229        0.0187784         112.796
0.3233                 0.0117502         20.9995         0.998995        -9.31505         0.998995        -9.31505        0.0189088         112.254
0.3286                  0.011812          21.686         0.998977        -9.46781         0.998977        -9.46781        0.0190397         111.715
0.3339                 0.0118759          22.365          0.99896        -9.62057          0.99896        -9.62057        0.0191711          111.18
0.3392                 0.0119417         23.0361         0.998942        -9.77333         0.998942        -9.77333        0.0193029         110.649
0.3445                 0.0120094         23.6994         0.998924        -9.92609         0.998924        -9.92609        0.0194351         110.122
0.3498                  0.012079         24.3546         0.998906        -10.0788         0.998906        -10.0788        0.0195678         109.598
0.3551                 0.0121505         25.0019         0.998889        -10.2316         0.998889        -10.2316        0.0197008         109.078
0.3604                 0.0122239          25.641         0.998871        -10.3844         0.998871        -10.3844        0.0198343         108.561
0.3657                  0.012299         26.2719         0.998853        -10.5371         0.998853        -10.5371        0.0199682         108.047
0.371                  0.0123759         26.8946         0.998835        -10.6899         0.998835        -10.6899        0.0201025         107.537
0.3763                 0.0124546          27.509         0.998816        -10.8426         0.998816        -10.8426        0.0202372          107.03
0.3816                  0.012535         28.1151         0.998798        -10.9954         0.998798        -10.9954        0.0203723         106.527
0.3869                 0.0126171         28.7129          0.99878        -11.1482          0.99878        -11.1482        0.0205077         106.026
0.3922                 0.0127009         29.3023         0.998762        -11.3009         0.998762        -11.3009        0.0206435         105.529
0.3975                 0.0127862         29.8834         0.998743        -11.4537         0.998743        -11.4537        0.0207797         105.035
0.4028                 0.0128732         30.4562         0.998725        -11.6065         0.998725        -11.6065        0.0209162         104.543
0.4081                 0.0129618         31.0206         0.998707        -11.7592         0.998707        -11.7592        0.0210531         104.055
0.4134                 0.0130518         31.5767         0.998688         -11.912         0.998688         -11.912        0.0211904          103.57
0.4187                 0.0131434         32.1246         0.998669        -12.0647         0.998669        -12.0647         0.021328         103.087
0.424                  0.0132365         32.6642         0.998651        -12.2175         0.998651        -12.2175        0.0214659         102.608
0.4293                  0.013331         33.1956         0.998632        -12.3703         0.998632        -12.3703        0.0216042         102.131
0.4346                  0.013427         33.7188         0.998613         -12.523         0.998613         -12.523        0.0217427         101.657
0.4399                 0.0135244          34.234         0.998594        -12.6758         0.998594        -12.6758        0.0218816         101.185
0.4452                 0.0136231         34.7411         0.998575        -12.8286         0.998575        -12.8286        0.0220209         100.716
0.4505                 0.0137232         35.2402         0.998556        -12.9813         0.998556        -12.9813        0.0221604          100.25
0.4558                 0.0138246         35.7314         0.998537        -13.1341         0.998537        -13.1341        0.0223002         99.7862
0.4611                 0.0139273         36.2147         0.998518        -13.2868         0.998518        -13.2868        0.0224404          99.325
0.4664                 0.0140312         36.6903         0.998499        -13.4396         0.998499        -13.4396        0.0225808         98.8663
0.4717                 0.0141364         37.1581          0.99848        -13.5924          0.99848        -13.5924        0.0227216         98.4099
0.477                  0.0142428         37.6184         0.998461        -13.7451         0.998461        -13.7451        0.0228626          97.956
0.4823                 0.0143504          38.071         0.998441        -13.8979         0.998441        -13.8979        0.0230039         97.5044
0.4876                 0.0144592         38.5162         0.998422        -14.0507         0.998422        -14.0507        0.0231455         97.0552
0.4929                 0.0145691         38.9541         0.998402        -14.2034         0.998402        -14.2034        0.0232874         96.6081
0.4982                 0.0146802         39.3846         0.998383        -14.3562         0.998383        -14.3562        0.0234295         96.1634
0.5035                 0.0147923          39.808         0.998363         -14.509         0.998363         -14.509        0.0235719         95.7208
0.5088                 0.0149056         40.2242         0.998344        -14.6617         0.998344        -14.6617        0.0237146         95.2804
0.5141                 0.0150198         40.6335         0.998324        -14.8145         0.998324        -14.8145        0.0238576         94.8421
0.5194                 0.0151352         41.0358         0.998304        -14.9673         0.998304        -14.9673        0.0240008          94.406
0.5247                 0.0152515         41.4313         0.998284          -15.12         0.998284          -15.12        0.0241442         93.9719
0.53                   0.0153688         41.8201         0.998264        -15.2728         0.998264        -15.2728         0.024288         93.5398
0.5353                 0.0154871         42.2022         0.998244        -15.4256         0.998244        -15.4256        0.0244319         93.1097
0.5406                 0.0156064         42.5777         0.998224        -15.5783         0.998224        -15.5783        0.0245761         92.6816
0.5459                 0.0157266         42.9469         0.998204        -15.7311         0.998204        -15.7311        0.0247206         92.2554
0.5512                 0.0158477         43.3096         0.998184        -15.8839         0.998184        -15.8839        0.0248653         91.8311
0.5565                 0.0159697         43.6662         0.998164        -16.0366         0.998164        -16.0366        0.0250102         91.4087
0.5618                 0.0160926         44.0165         0.998144        -16.1894         0.998144        -16.1894        0.0251554         90.9882
0.5671                 0.0162164         44.3608         0.998123        -16.3422         0.998123        -16.3422        0.0253008         90.5694
0.5724                  0.016341         44.6991         0.998103        -16.4949         0.998103        -16.4949        0.0254465         90.1525
0.5777                 0.0164664         45.0315         0.998082        -16.6477         0.998082        -16.6477        0.0255924         89.7373
0.583                  0.0165927         45.3581         0.998062        -16.8005         0.998062        -16.8005        0.0257384         89.3239
0.5883                 0.0167197         45.6791         0.998041        -16.9532         0.998041        -16.9532        0.0258848         88.9122
0.5936                 0.0168476         45.9944         0.998021         -17.106         0.998021         -17.106        0.0260313         88.5021
0.5989                 0.0169762         46.3042            0.998        -17.2588            0.998        -17.2588        0.0261781         88.0937
0.6042                 0.0171056         46.6086         0.997979        -17.4115         0.997979        -17.4115         0.026325          87.687
0.6095                 0.0172357         46.9077         0.997958        -17.5643         0.997958        -17.5643        0.0264722         87.2819
0.6148                 0.0173665         47.2015         0.997937        -17.7171         0.997937        -17.7171        0.0266196         86.8783
0.6201                 0.0174981         47.4901         0.997916        -17.8698         0.997916        -17.8698        0.0267673         86.4764
0.6254                 0.0176303         47.7737         0.997895        -18.0226         0.997895        -18.0226        0.0269151         86.0759
0.6307                 0.0177633         48.0523         0.997874        -18.1754         0.997874        -18.1754        0.0270631          85.677
0.636                  0.0178969          48.326         0.997853        -18.3282         0.997853        -18.3282        0.0272113         85.2796
0.6413                 0.0180312         48.5949         0.997832        -18.4809         0.997832        -18.4809        0.0273598         84.8836
0.6466                 0.0181661          48.859         0.997811        -18.6337         0.997811        -18.6337        0.0275084         84.4891
0.6519                 0.0183017         49.1185         0.997789        -18.7865         0.997789        -18.7865        0.0276572         84.0961
0.6572                 0.0184379         49.3734         0.997768        -18.9392         0.997768        -18.9392        0.0278063         83.7044
0.6625                 0.0185747         49.6238         0.997746         -19.092         0.997746         -19.092        0.0279555         83.3142
0.6678                 0.0187121         49.8697         0.997725        -19.2448         0.997725        -19.2448        0.0281049         82.9253
0.6731                 0.0188501         50.1113         0.997703        -19.3975         0.997703        -19.3975        0.0282545         82.5378
0.6784                 0.0189887         50.3487         0.997682        -19.5503         0.997682        -19.5503        0.0284043         82.1516
0.6837                 0.0191279         50.5818          0.99766        -19.7031          0.99766        -19.7031        0.0285543         81.7667
0.689                  0.0192676         50.8108         0.997638        -19.8559         0.997638        -19.8559        0.0287045         81.3831
0.6943                 0.0194079         51.0358         0.997616        -20.0086         0.997616        -20.0086        0.0288549         81.0008
0.6996                 0.0195488         51.2567         0.997594        -20.1614         0.997594        -20.1614        0.0290054         80.6198
0.7049                 0.0196902         51.4737         0.997572        -20.3142         0.997572        -20.3142        0.0291562           80.24
0.7102                 0.0198321         51.6869          0.99755        -20.4669          0.99755        -20.4669        0.0293071         79.8614
0.7155                 0.0199745         51.8963         0.997528        -20.6197         0.997528        -20.6197        0.0294582          79.484
0.7208                 0.0201175          52.102         0.997506        -20.7725         0.997506        -20.7725        0.0296095         79.1079
0.7261                 0.0202609          52.304         0.997484        -20.9253         0.997484        -20.9253        0.0297609         78.7329
0.7314                 0.0204049         52.5024         0.997461         -21.078         0.997461         -21.078        0.0299126         78.3591
0.7367                 0.0205493         52.6973         0.997439        -21.2308         0.997439        -21.2308        0.0300644         77.9864
0.742                  0.0206942         52.8887         0.997417        -21.3836         0.997417        -21.3836        0.0302164         77.6148
0.7473                 0.0208396         53.0767         0.997394        -21.5363         0.997394        -21.5363        0.0303685         77.2444
0.7526                 0.0209855         53.2613         0.997371        -21.6891         0.997371        -21.6891        0.0305209         76.8751
0.7579                 0.0211318         53.4427         0.997349        -21.8419         0.997349        -21.8419        0.0306734         76.5069
0.7632                 0.0212786         53.6208         0.997326        -21.9947         0.997326        -21.9947         0.030826         76.1397
0.7685                 0.0214258         53.7957         0.997303        -22.1474         0.997303        -22.1474        0.0309789         75.7736
0.7738                 0.0215734         53.9674         0.997281        -22.3002         0.997281        -22.3002        0.0311319         75.4085
0.7791                 0.0217215         54.1361         0.997258         -22.453         0.997258         -22.453        0.0312851         75.0445
0.7844                 0.0218701         54.3018         0.997235        -22.6057         0.997235        -22.6057        0.0314384         74.6815
0.7897                  0.022019         54.4644         0.997212        -22.7585         0.997212        -22.7585        0.0315919         74.3195
0.795                  0.0221683         54.6242         0.997189        -22.9113         0.997189        -22.9113        0.0317456         73.9585
0.8003                 0.0223181         54.7811         0.997165        -23.0641         0.997165        -23.0641        0.0318995         73.5985
0.8056                 0.0224683         54.9351         0.997142        -23.2168         0.997142        -23.2168        0.0320535         73.2395
0.8109                 0.0226188         55.0864         0.997119        -23.3696         0.997119        -23.3696        0.0322076         72.8814
0.8162                 0.0227698         55.2349         0.997096        -23.5224         0.997096        -23.5224         0.032362         72.5242
0.8215                 0.0229211         55.3807         0.997072        -23.6752         0.997072        -23.6752        0.0325165          72.168
0.8268                 0.0230729         55.5239         0.997049        -23.8279         0.997049        -23.8279        0.0326711         71.8127
0.8321                  0.023225         55.6645         0.997025        -23.9807         0.997025        -23.9807        0.0328259         71.4583
0.8374                 0.0233774         55.8025         0.997002        -24.1335         0.997002        -24.1335        0.0329809         71.1049
0.8427                 0.0235303          55.938         0.996978        -24.2862         0.996978        -24.2862         0.033136         70.7523
0.848                  0.0236835          56.071         0.996954         -24.439         0.996954         -24.439        0.0332913         70.4006
0.8533                 0.0238371         56.2016          0.99693        -24.5918          0.99693        -24.5918        0.0334468         70.0497
0.8586                  0.023991         56.3297         0.996907        -24.7446         0.996907        -24.7446        0.0336024         69.6997
0.8639                 0.0241453         56.4556         0.996883        -24.8973         0.996883        -24.8973        0.0337581         69.3506
0.8692                 0.0242999         56.5791         0.996859        -25.0501         0.996859        -25.0501         0.033914         69.0023
0.8745                 0.0244548         56.7003         0.996835        -25.2029         0.996835        -25.2029        0.0340701         68.6548
0.8798                 0.0246101         56.8192         0.996811        -25.3557         0.996811        -25.3557        0.0342263         68.3082
0.8851                 0.0247658          56.936         0.996786        -25.5084         0.996786        -25.5084        0.0343827         67.9623
0.8904                 0.0249217         57.0506         0.996762        -25.6612         0.996762        -25.6612        0.0345392         67.6173
0.8957                  0.025078          57.163         0.996738         -25.814         0.996738         -25.814        0.0346959          67.273
0.901                  0.0252346         57.2733         0.996713        -25.9668         0.996713        -25.9668        0.0348527         66.9295
0.9063                 0.0253916         57.3816         0.996689        -26.1195         0.996689        -26.1195        0.0350097         66.5868
0.9116                 0.0255488         57.4878         0.996664        -26.2723         0.996664        -26.2723        0.0351669         66.2449
0.9169                 0.0257064          57.592          0.99664        -26.4251          0.99664        -26.4251        0.0353241         65.9037
0.9222                 0.0258643         57.6942         0.996615        -26.5779         0.996615        -26.5779        0.0354816         65.5633
0.9275                 0.0260225         57.7945          0.99659        -26.7306          0.99659        -26.7306        0.0356392         65.2236
0.9328                 0.0261809         57.8928         0.996566        -26.8834         0.996566        -26.8834        0.0357969         64.8846
0.9381                 0.0263397         57.9893         0.996541        -27.0362         0.996541        -27.0362        0.0359548         64.5464
0.9434                 0.0264988         58.0839         0.996516         -27.189         0.996516         -27.189        0.0361128         64.2089
0.9487                 0.0266582         58.1766         0.996491        -27.3417         0.996491        -27.3417         0.036271          63.872
0.954                  0.0268178         58.2676         0.996466        -27.4945         0.996466        -27.4945        0.0364293         63.5359
0.9593                 0.0269778         58.3568         0.996441        -27.6473         0.996441        -27.6473        0.0365878         63.2005
0.9646                  0.027138         58.4442         0.996416        -27.8001         0.996416        -27.8001        0.0367464         62.8657
0.9699                 0.0272986         58.5299          0.99639        -27.9528          0.99639        -27.9528        0.0369051         62.5317
0.9752                 0.0274594         58.6139         0.996365        -28.1056         0.996365        -28.1056         0.037064         62.1983
0.9805                 0.0276205         58.6963          0.99634        -28.2584          0.99634        -28.2584        0.0372231         61.8655
0.9858                 0.0277818         58.7769         0.996314        -28.4112         0.996314        -28.4112        0.0373823         61.5334
0.9911                 0.0279435          58.856         0.996289        -28.5639         0.996289        -28.5639        0.0375416          61.202
0.9964                 0.0281054         58.9334         0.996263        -28.7167         0.996263        -28.7167        0.0377011         60.8712