! TOUCHSTONE file generated by CST MICROWAVE STUDIO
! Date and time: Tue Jan  7 09:43:21 2020
! Project name: OSHPark_FR408_Transition2.cst
! Parameters = {GND_Plane_XMax=12.75; Cap_Disk_XOffset=0; Cap_Disk2_YCenter=-1.03; Cap_Disk_YCenter=1.03; Cap_Disk_XCenter=7.39; Cap_Disk_Radius=0.5; BottomSupport_Left_YMax=4.76; BottomSupport_Left_YMin=3.74; BottomSupport_Right_YMax=-3.74; BottomSupport_Right_YMin=-4.76; BottomSupport_XMax=11.64; BottomSupport_XMin=6.89; BottomSupport_ZMax=-1.64084; BottomSupport_ZMin=-3.58; Cu1_Thickness=0.03556; Cu2_Thickness=0.01778; Fr408Core_Thickness=1.1938; GND_Plane_Offset=2.825; PCBThickness=1.6256; Prepreg1_Zmin=-0.20574; Prepreg_Thickness=0.17018; RFTraceYMax=0.17145; RFTrace_XMax=15; RFTrace_XMin=11.46; RFTrace_YMin=-0.17145; SMA_CenterCond_Inner_XMax=11.64; SMA_CenterCond_Radius=0.6; SMA_Dielectric_InnerRadius=0.6; SMA_Dielectric_OuterRadius=2; SMA_Dielectric_XMax=5.62; SMA_Dielectric_XMin=0; SMA_Dielectric_YCenter=0; SMA_Dielectric_ZCenter=0; SMA_Footprint_Center_XMax=12.49; SMA_Footprint_Center_XMin=7.74; SMA_Footprint_Center_YMax=0.75; SMA_Footprint_Center_YMin=-0.75; SMA_OuterCond_InnerRadius=2; SMA_OuterCond_OuterRadius=3; SMA_OuterCond_XMax=6.89; SMA_XMax=6.67; SMA_XMin=0; SMA_YCenter=0; SMA_ZCenter=0; TopSupport_ZMax=1.02; TopSupport_ZMin=0; Via1_XCenter=7.5; Via1_YCenter=-4.25; Via2_XCenter=8.75; Via2_YCenter=-4.25; Via3_XCenter=10; Via3_YCenter=-4.25; Via4_XCenter=11.25; Via4_YCenter=-4.25; Via5_XCenter=7.5; Via5_YCenter=4.25; Via6_XCenter=8.75; Via6_YCenter=4.25; Via7_XCenter=10; Via7_YCenter=4.25; Via8_XCenter=11.25; Via8_YCenter=4.25; ViaInnerRadius=0; ViaOuterRadius=0.381}
! Header version: 2015
! Port assignment regex: !\s*Touchstone port\s*([0-9]+)\s*=\s*CST MWS port\s*([0-9]+)\s*\(\"(.*)\"\)(\s*mode\s*([0-9]+))?.*
! Touchstone port assignment:
! Touchstone port 1 = CST MWS port 1 ("")
! Touchstone port 2 = CST MWS port 2 ("")
# GHz S MA R 50
0                      0.0739025               0         0.931286               0         0.931286               0        0.0635225               0
0.0053                0.00846963        -34.4753         0.999976       -0.160648         0.999976       -0.160648       0.00884152         142.165
0.0106                0.00844995        -34.3678         0.999961       -0.307716         0.999961       -0.307716       0.00886886         141.813
0.0159                0.00838803        -33.9633         0.999946       -0.458258         0.999946       -0.458258       0.00892629         141.111
0.0212                0.00831987        -33.4588         0.999932       -0.609667         0.999932       -0.609667       0.00899532         140.348
0.0265                0.00825114        -32.9014         0.999918       -0.761423         0.999918       -0.761423       0.00907068         139.571
0.0318                0.00818055        -32.3218         0.999903       -0.913352         0.999903       -0.913352       0.00914762         138.783
0.0371                0.00811178         -31.712         0.999889        -1.06538         0.999889        -1.06538       0.00922795         138.004
0.0424                0.00804847        -31.0605         0.999874        -1.21747         0.999874        -1.21747       0.00931402         137.255
0.0477                0.00798431        -30.4006          0.99986         -1.3696          0.99986         -1.3696       0.00939972         136.503
0.053                 0.00791951        -29.7327         0.999845        -1.52176         0.999845        -1.52176         0.009485         135.751
0.0583                0.00785356        -29.0604          0.99983        -1.67394          0.99983        -1.67394       0.00956929         134.995
0.0636                0.00778962        -28.3705         0.999816        -1.82614         0.999816        -1.82614       0.00965518          134.25
0.0689                0.00772769        -27.6638         0.999801        -1.97835         0.999801        -1.97835        0.0097425         133.517
0.0742                0.00766728        -26.9429         0.999786        -2.13057         0.999786        -2.13057       0.00983075         132.792
0.0795                0.00760819         -26.209         0.999771         -2.2828         0.999771         -2.2828       0.00991967         132.075
0.0848                0.00755034        -25.4626         0.999757        -2.43503         0.999757        -2.43503        0.0100091         131.365
0.0901                0.00749404         -24.703         0.999742        -2.58727         0.999742        -2.58727        0.0100993         130.663
0.0954                0.00743935        -23.9301         0.999727        -2.73951         0.999727        -2.73951        0.0101902         129.969
0.1007                0.00738624        -23.1444         0.999712        -2.89176         0.999712        -2.89176        0.0102817         129.283
0.106                 0.00733475        -22.3461         0.999697        -3.04401         0.999697        -3.04401        0.0103738         128.604
0.1113                0.00728491        -21.5354         0.999682        -3.19626         0.999682        -3.19626        0.0104665         127.933
0.1166                0.00723679        -20.7124         0.999667        -3.34852         0.999667        -3.34852        0.0105597         127.269
0.1219                0.00719043        -19.8772         0.999651        -3.50078         0.999651        -3.50078        0.0106536         126.612
0.1272                0.00714585        -19.0302         0.999636        -3.65304         0.999636        -3.65304        0.0107479         125.962
0.1325                0.00710309        -18.1716         0.999621         -3.8053         0.999621         -3.8053        0.0108428         125.319
0.1378                 0.0070622        -17.3017         0.999606        -3.95756         0.999606        -3.95756        0.0109381         124.683
0.1431                 0.0070232        -16.4208          0.99959        -4.10982          0.99959        -4.10982         0.011034         124.053
0.1484                0.00698614        -15.5293         0.999575        -4.26209         0.999575        -4.26209        0.0111303          123.43
0.1537                0.00695104        -14.6276          0.99956        -4.41435          0.99956        -4.41435        0.0112271         122.814
0.159                 0.00691793         -13.716         0.999544        -4.56662         0.999544        -4.56662        0.0113244         122.203
0.1643                0.00688686         -12.795         0.999529        -4.71888         0.999529        -4.71888        0.0114221         121.599
0.1696                0.00685785        -11.8651         0.999513        -4.87115         0.999513        -4.87115        0.0115202         121.001
0.1749                0.00683091        -10.9267         0.999497        -5.02342         0.999497        -5.02342        0.0116187         120.408
0.1802                0.00680609        -9.98047         0.999482        -5.17569         0.999482        -5.17569        0.0117176         119.822
0.1855                0.00678341        -9.02683         0.999466        -5.32796         0.999466        -5.32796         0.011817          119.24
0.1908                 0.0067629        -8.06639          0.99945        -5.48023          0.99945        -5.48023        0.0119167         118.665
0.1961                0.00674457        -7.09976         0.999435         -5.6325         0.999435         -5.6325        0.0120168         118.095
0.2014                0.00672843        -6.12758         0.999419        -5.78477         0.999419        -5.78477        0.0121172          117.53
0.2067                0.00671452        -5.15048         0.999403        -5.93705         0.999403        -5.93705         0.012218          116.97
0.212                 0.00670283        -4.16913         0.999387        -6.08932         0.999387        -6.08932        0.0123191         116.415
0.2173                0.00669342        -3.18421         0.999371        -6.24159         0.999371        -6.24159        0.0124206         115.865
0.2226                0.00668626        -2.19642         0.999355        -6.39386         0.999355        -6.39386        0.0125225         115.321
0.2279                0.00668136        -1.20646         0.999339        -6.54614         0.999339        -6.54614        0.0126246          114.78
0.2332                0.00667874       -0.215039         0.999323        -6.69841         0.999323        -6.69841         0.012727         114.245
0.2385                 0.0066784        0.777115         0.999307        -6.85069         0.999307        -6.85069        0.0128298         113.714
0.2438                0.00668036         1.76927         0.999291        -7.00296         0.999291        -7.00296        0.0129329         113.187
0.2491                 0.0066846         2.76071         0.999274        -7.15524         0.999274        -7.15524        0.0130362         112.665
0.2544                0.00669111         3.75072         0.999258        -7.30751         0.999258        -7.30751        0.0131398         112.147
0.2597                 0.0066999         4.73859         0.999242        -7.45979         0.999242        -7.45979        0.0132438         111.634
0.265                 0.00671095          5.7236         0.999225        -7.61206         0.999225        -7.61206        0.0133479         111.124
0.2703                0.00672428         6.70504         0.999209        -7.76434         0.999209        -7.76434        0.0134524         110.618
0.2756                0.00673986         7.68226         0.999192        -7.91661         0.999192        -7.91661        0.0135571         110.117
0.2809                0.00675766          8.6546         0.999176        -8.06889         0.999176        -8.06889        0.0136621         109.619
0.2862                0.00677768          9.6214         0.999159        -8.22117         0.999159        -8.22117        0.0137673         109.125
0.2915                 0.0067999          10.582         0.999143        -8.37344         0.999143        -8.37344        0.0138727         108.634
0.2968                0.00682431         11.5359         0.999126        -8.52572         0.999126        -8.52572        0.0139785         108.148
0.3021                0.00685089         12.4824         0.999109          -8.678         0.999109          -8.678        0.0140844         107.664
0.3074                0.00687959         13.4211         0.999093        -8.83027         0.999093        -8.83027        0.0141905         107.184
0.3127                0.00691041         14.3514         0.999076        -8.98255         0.999076        -8.98255        0.0142969         106.708
0.318                 0.00694331         15.2727         0.999059        -9.13483         0.999059        -9.13483        0.0144035         106.235
0.3233                0.00697828         16.1847         0.999042        -9.28711         0.999042        -9.28711        0.0145103         105.765
0.3286                0.00701528         17.0869         0.999025        -9.43939         0.999025        -9.43939        0.0146174         105.299
0.3339                0.00705427         17.9789         0.999008        -9.59166         0.999008        -9.59166        0.0147246         104.835
0.3392                0.00709524         18.8604         0.998991        -9.74394         0.998991        -9.74394         0.014832         104.375
0.3445                0.00713814          19.731         0.998974        -9.89622         0.998974        -9.89622        0.0149397         103.917
0.3498                0.00718295         20.5903         0.998957        -10.0485         0.998957        -10.0485        0.0150475         103.463
0.3551                0.00722964         21.4382          0.99894        -10.2008          0.99894        -10.2008        0.0151555         103.011
0.3604                0.00727816         22.2743         0.998923        -10.3531         0.998923        -10.3531        0.0152637         102.563
0.3657                0.00732847         23.0986         0.998906        -10.5053         0.998906        -10.5053        0.0153721         102.117
0.371                 0.00738056         23.9107         0.998888        -10.6576         0.998888        -10.6576        0.0154807         101.673
0.3763                0.00743439         24.7104         0.998871        -10.8099         0.998871        -10.8099        0.0155894         101.233
0.3816                0.00748992         25.4978         0.998854        -10.9622         0.998854        -10.9622        0.0156983         100.795
0.3869                 0.0075471         26.2726         0.998836        -11.1145         0.998836        -11.1145        0.0158074          100.36
0.3922                0.00760591         27.0348         0.998819        -11.2667         0.998819        -11.2667        0.0159167         99.9267
0.3975                0.00766631         27.7844         0.998801         -11.419         0.998801         -11.419        0.0160261         99.4963
0.4028                0.00772828         28.5212         0.998784        -11.5713         0.998784        -11.5713        0.0161357         99.0684
0.4081                0.00779177         29.2452         0.998766        -11.7236         0.998766        -11.7236        0.0162454         98.6429
0.4134                0.00785673         29.9566         0.998749        -11.8759         0.998749        -11.8759        0.0163553         98.2197
0.4187                0.00792315         30.6553         0.998731        -12.0281         0.998731        -12.0281        0.0164654         97.7988
0.424                 0.00799099         31.3413         0.998713        -12.1804         0.998713        -12.1804        0.0165756         97.3801
0.4293                0.00806022         32.0147         0.998695        -12.3327         0.998695        -12.3327        0.0166859         96.9636
0.4346                 0.0081308         32.6756         0.998678         -12.485         0.998678         -12.485        0.0167964         96.5494
0.4399                0.00820269          33.324          0.99866        -12.6373          0.99866        -12.6373         0.016907         96.1372
0.4452                0.00827587         33.9601         0.998642        -12.7895         0.998642        -12.7895        0.0170178         95.7271
0.4505                 0.0083503         34.5839         0.998624        -12.9418         0.998624        -12.9418        0.0171287         95.3191
0.4558                0.00842597         35.1956         0.998606        -13.0941         0.998606        -13.0941        0.0172398         94.9131
0.4611                0.00850283         35.7953         0.998588        -13.2464         0.998588        -13.2464         0.017351         94.5092
0.4664                0.00858084         36.3831          0.99857        -13.3987          0.99857        -13.3987        0.0174623         94.1071
0.4717                0.00865998         36.9593         0.998551        -13.5509         0.998551        -13.5509        0.0175737         93.7069
0.477                 0.00874023         37.5239         0.998533        -13.7032         0.998533        -13.7032        0.0176853         93.3086
0.4823                0.00882157          38.077         0.998515        -13.8555         0.998515        -13.8555         0.017797         92.9122
0.4876                0.00890396         38.6189         0.998497        -14.0078         0.998497        -14.0078        0.0179089         92.5176
0.4929                0.00898736         39.1497         0.998478        -14.1601         0.998478        -14.1601        0.0180208         92.1247
0.4982                0.00907175         39.6697          0.99846        -14.3123          0.99846        -14.3123        0.0181329         91.7336
0.5035                0.00915712         40.1789         0.998442        -14.4646         0.998442        -14.4646        0.0182451         91.3443
0.5088                0.00924344         40.6776         0.998423        -14.6169         0.998423        -14.6169        0.0183574         90.9566
0.5141                0.00933068         41.1658         0.998405        -14.7692         0.998405        -14.7692        0.0184699         90.5706
0.5194                0.00941882         41.6439         0.998386        -14.9215         0.998386        -14.9215        0.0185824         90.1862
0.5247                0.00950783          42.112         0.998368        -15.0738         0.998368        -15.0738        0.0186951         89.8034
0.53                  0.00959769         42.5702         0.998349         -15.226         0.998349         -15.226        0.0188079         89.4222
0.5353                 0.0096884         43.0187          0.99833        -15.3783          0.99833        -15.3783        0.0189208         89.0425
0.5406                0.00977991         43.4578         0.998311        -15.5306         0.998311        -15.5306        0.0190338         88.6644
0.5459                 0.0098722         43.8876         0.998293        -15.6829         0.998293        -15.6829        0.0191469         88.2878
0.5512                0.00996527         44.3083         0.998274        -15.8352         0.998274        -15.8352        0.0192601         87.9126
0.5565                 0.0100591           44.72         0.998255        -15.9874         0.998255        -15.9874        0.0193734         87.5389
0.5618                 0.0101536         45.1229         0.998236        -16.1397         0.998236        -16.1397        0.0194869         87.1667
0.5671                 0.0102489         45.5172         0.998217         -16.292         0.998217         -16.292        0.0196004         86.7958
0.5724                 0.0103449         45.9032         0.998198        -16.4443         0.998198        -16.4443        0.0197141         86.4263
0.5777                 0.0104415         46.2809         0.998179        -16.5966         0.998179        -16.5966        0.0198278         86.0582
0.583                  0.0105388         46.6505          0.99816        -16.7489          0.99816        -16.7489        0.0199417         85.6914
0.5883                 0.0106368         47.0121         0.998141        -16.9011         0.998141        -16.9011        0.0200556          85.326
0.5936                 0.0107353          47.366         0.998122        -17.0534         0.998122        -17.0534        0.0201697         84.9618
0.5989                 0.0108345         47.7124         0.998102        -17.2057         0.998102        -17.2057        0.0202838         84.5989
0.6042                 0.0109343         48.0513         0.998083         -17.358         0.998083         -17.358         0.020398         84.2373
0.6095                 0.0110347          48.383         0.998064        -17.5103         0.998064        -17.5103        0.0205124         83.8769
0.6148                 0.0111357         48.7074         0.998044        -17.6626         0.998044        -17.6626        0.0206268         83.5177
0.6201                 0.0112372         49.0249         0.998025        -17.8148         0.998025        -17.8148        0.0207413         83.1598
0.6254                 0.0113392         49.3356         0.998005        -17.9671         0.998005        -17.9671         0.020856          82.803
0.6307                 0.0114418         49.6397         0.997986        -18.1194         0.997986        -18.1194        0.0209707         82.4473
0.636                  0.0115449         49.9372         0.997966        -18.2717         0.997966        -18.2717        0.0210855         82.0928
0.6413                 0.0116485         50.2282         0.997947         -18.424         0.997947         -18.424        0.0212004         81.7395
0.6466                 0.0117527          50.513         0.997927        -18.5763         0.997927        -18.5763        0.0213154         81.3872
0.6519                 0.0118573         50.7917         0.997907        -18.7285         0.997907        -18.7285        0.0214304         81.0361
0.6572                 0.0119624         51.0644         0.997888        -18.8808         0.997888        -18.8808        0.0215456          80.686
0.6625                 0.0120679         51.3313         0.997868        -19.0331         0.997868        -19.0331        0.0216609          80.337
0.6678                 0.0121739         51.5923         0.997848        -19.1854         0.997848        -19.1854        0.0217762          79.989
0.6731                 0.0122803         51.8478         0.997828        -19.3377         0.997828        -19.3377        0.0218916         79.6421
0.6784                 0.0123872         52.0977         0.997808        -19.4899         0.997808        -19.4899        0.0220071         79.2962
0.6837                 0.0124945         52.3423         0.997788        -19.6422         0.997788        -19.6422        0.0221227         78.9513
0.689                  0.0126022         52.5817         0.997768        -19.7945         0.997768        -19.7945        0.0222384         78.6073
0.6943                 0.0127104         52.8158         0.997748        -19.9468         0.997748        -19.9468        0.0223542         78.2644
0.6996                 0.0128189         53.0449         0.997728        -20.0991         0.997728        -20.0991        0.0224701         77.9224
0.7049                 0.0129278          53.269         0.997708        -20.2514         0.997708        -20.2514         0.022586         77.5814
0.7102                 0.0130371         53.4884         0.997688        -20.4036         0.997688        -20.4036         0.022702         77.2412
0.7155                 0.0131468          53.703         0.997667        -20.5559         0.997667        -20.5559        0.0228181          76.902
0.7208                 0.0132569         53.9129         0.997647        -20.7082         0.997647        -20.7082        0.0229343         76.5638
0.7261                 0.0133673         54.1183         0.997627        -20.8605         0.997627        -20.8605        0.0230506         76.2264
0.7314                  0.013478         54.3193         0.997606        -21.0128         0.997606        -21.0128         0.023167         75.8899
0.7367                 0.0135892          54.516         0.997586        -21.1651         0.997586        -21.1651        0.0232834         75.5542
0.742                  0.0137006         54.7084         0.997565        -21.3173         0.997565        -21.3173        0.0233999         75.2195
0.7473                 0.0138124         54.8965         0.997545        -21.4696         0.997545        -21.4696        0.0235165         74.8855
0.7526                 0.0139245         55.0806         0.997524        -21.6219         0.997524        -21.6219        0.0236332         74.5525
0.7579                  0.014037         55.2608         0.997504        -21.7742         0.997504        -21.7742        0.0237499         74.2202
0.7632                 0.0141497          55.437         0.997483        -21.9265         0.997483        -21.9265        0.0238668         73.8887
0.7685                 0.0142628         55.6094         0.997462        -22.0788         0.997462        -22.0788        0.0239837         73.5581
0.7738                 0.0143762          55.778         0.997441         -22.231         0.997441         -22.231        0.0241007         73.2282
0.7791                 0.0144898         55.9429         0.997421        -22.3833         0.997421        -22.3833        0.0242177         72.8992
0.7844                 0.0146038         56.1043           0.9974        -22.5356           0.9974        -22.5356        0.0243349         72.5708
0.7897                  0.014718         56.2621         0.997379        -22.6879         0.997379        -22.6879        0.0244521         72.2433
0.795                  0.0148326         56.4165         0.997358        -22.8402         0.997358        -22.8402        0.0245694         71.9165
0.8003                 0.0149474         56.5674         0.997337        -22.9925         0.997337        -22.9925        0.0246868         71.5905
0.8056                 0.0150625          56.715         0.997316        -23.1447         0.997316        -23.1447        0.0248042         71.2651
0.8109                 0.0151779         56.8594         0.997295         -23.297         0.997295         -23.297        0.0249218         70.9405
0.8162                 0.0152935         57.0006         0.997274        -23.4493         0.997274        -23.4493        0.0250394         70.6167
0.8215                 0.0154094         57.1387         0.997252        -23.6016         0.997252        -23.6016         0.025157         70.2935
0.8268                 0.0155255         57.2736         0.997231        -23.7539         0.997231        -23.7539        0.0252748          69.971
0.8321                 0.0156419         57.4056          0.99721        -23.9062          0.99721        -23.9062        0.0253926         69.6492
0.8374                 0.0157586         57.5346         0.997189        -24.0584         0.997189        -24.0584        0.0255105         69.3281
0.8427                 0.0158755         57.6608         0.997167        -24.2107         0.997167        -24.2107        0.0256285         69.0077
0.848                  0.0159926         57.7841         0.997146         -24.363         0.997146         -24.363        0.0257466         68.6879
0.8533                   0.01611         57.9046         0.997124        -24.5153         0.997124        -24.5153        0.0258647         68.3688
0.8586                 0.0162276         58.0223         0.997103        -24.6676         0.997103        -24.6676        0.0259829         68.0503
0.8639                 0.0163454         58.1375         0.997081        -24.8199         0.997081        -24.8199        0.0261012         67.7325
0.8692                 0.0164635           58.25          0.99706        -24.9721          0.99706        -24.9721        0.0262195         67.4153
0.8745                 0.0165818         58.3599         0.997038        -25.1244         0.997038        -25.1244        0.0263379         67.0987
0.8798                 0.0167003         58.4672         0.997016        -25.2767         0.997016        -25.2767        0.0264564         66.7828
0.8851                 0.0168191         58.5721         0.996994         -25.429         0.996994         -25.429         0.026575         66.4675
0.8904                  0.016938         58.6746         0.996973        -25.5813         0.996973        -25.5813        0.0266936         66.1527
0.8957                 0.0170572         58.7747         0.996951        -25.7336         0.996951        -25.7336        0.0268124         65.8386
0.901                  0.0171766         58.8725         0.996929        -25.8858         0.996929        -25.8858        0.0269311          65.525
0.9063                 0.0172962         58.9679         0.996907        -26.0381         0.996907        -26.0381          0.02705          65.212
0.9116                  0.017416          59.061         0.996885        -26.1904         0.996885        -26.1904        0.0271689         64.8996
0.9169                  0.017536          59.152         0.996863        -26.3427         0.996863        -26.3427        0.0272879         64.5878
0.9222                 0.0176561         59.2408         0.996841         -26.495         0.996841         -26.495         0.027407         64.2765
0.9275                 0.0177765         59.3275         0.996819        -26.6473         0.996819        -26.6473        0.0275261         63.9658
0.9328                 0.0178971          59.412         0.996797        -26.7995         0.996797        -26.7995        0.0276454         63.6557
0.9381                 0.0180179         59.4944         0.996774        -26.9518         0.996774        -26.9518        0.0277646         63.3461
0.9434                 0.0181389         59.5749         0.996752        -27.1041         0.996752        -27.1041         0.027884          63.037
0.9487                   0.01826         59.6534          0.99673        -27.2564          0.99673        -27.2564        0.0280034         62.7285
0.954                  0.0183814         59.7299         0.996707        -27.4087         0.996707        -27.4087        0.0281229         62.4204
0.9593                 0.0185029         59.8045         0.996685         -27.561         0.996685         -27.561        0.0282425          62.113
0.9646                 0.0186246         59.8771         0.996663        -27.7132         0.996663        -27.7132        0.0283621          61.806
0.9699                 0.0187465          59.948          0.99664        -27.8655          0.99664        -27.8655        0.0284819         61.4995
0.9752                 0.0188685          60.017         0.996618        -28.0178         0.996618        -28.0178        0.0286016         61.1935
0.9805                 0.0189908         60.0843         0.996595        -28.1701         0.996595        -28.1701        0.0287215         60.8881
0.9858                 0.0191132         60.1497         0.996572        -28.3224         0.996572        -28.3224        0.0288414         60.5831
0.9911                 0.0192358         60.2134          0.99655        -28.4747          0.99655        -28.4747        0.0289614         60.2787
0.9964                 0.0193586         60.2754         0.996527        -28.6269         0.996527        -28.6269        0.0290815         59.9746