! TOUCHSTONE file generated by CST MICROWAVE STUDIO
! Date and time: Tue Jan  7 09:43:40 2020
! Project name: OSHPark_FR408_Transition2.cst
! Parameters = {GND_Plane_XMax=12.5; Cap_Disk_XOffset=0; Cap_Disk2_YCenter=-1.03; Cap_Disk_YCenter=1.03; Cap_Disk_XCenter=7.39; Cap_Disk_Radius=0.5; BottomSupport_Left_YMax=4.76; BottomSupport_Left_YMin=3.74; BottomSupport_Right_YMax=-3.74; BottomSupport_Right_YMin=-4.76; BottomSupport_XMax=11.64; BottomSupport_XMin=6.89; BottomSupport_ZMax=-1.64084; BottomSupport_ZMin=-3.58; Cu1_Thickness=0.03556; Cu2_Thickness=0.01778; Fr408Core_Thickness=1.1938; GND_Plane_Offset=2.875; PCBThickness=1.6256; Prepreg1_Zmin=-0.20574; Prepreg_Thickness=0.17018; RFTraceYMax=0.17145; RFTrace_XMax=15; RFTrace_XMin=11.46; RFTrace_YMin=-0.17145; SMA_CenterCond_Inner_XMax=11.64; SMA_CenterCond_Radius=0.6; SMA_Dielectric_InnerRadius=0.6; SMA_Dielectric_OuterRadius=2; SMA_Dielectric_XMax=5.62; SMA_Dielectric_XMin=0; SMA_Dielectric_YCenter=0; SMA_Dielectric_ZCenter=0; SMA_Footprint_Center_XMax=12.49; SMA_Footprint_Center_XMin=7.74; SMA_Footprint_Center_YMax=0.75; SMA_Footprint_Center_YMin=-0.75; SMA_OuterCond_InnerRadius=2; SMA_OuterCond_OuterRadius=3; SMA_OuterCond_XMax=6.89; SMA_XMax=6.67; SMA_XMin=0; SMA_YCenter=0; SMA_ZCenter=0; TopSupport_ZMax=1.02; TopSupport_ZMin=0; Via1_XCenter=7.5; Via1_YCenter=-4.25; Via2_XCenter=8.75; Via2_YCenter=-4.25; Via3_XCenter=10; Via3_YCenter=-4.25; Via4_XCenter=11.25; Via4_YCenter=-4.25; Via5_XCenter=7.5; Via5_YCenter=4.25; Via6_XCenter=8.75; Via6_YCenter=4.25; Via7_XCenter=10; Via7_YCenter=4.25; Via8_XCenter=11.25; Via8_YCenter=4.25; ViaInnerRadius=0; ViaOuterRadius=0.381}
! Header version: 2015
! Port assignment regex: !\s*Touchstone port\s*([0-9]+)\s*=\s*CST MWS port\s*([0-9]+)\s*\(\"(.*)\"\)(\s*mode\s*([0-9]+))?.*
! Touchstone port assignment:
! Touchstone port 1 = CST MWS port 1 ("")
! Touchstone port 2 = CST MWS port 2 ("")
# GHz S MA R 50
0                       0.106011               0         0.905025               0         0.905025               0        0.0838288               0
0.0053                 0.0128793         -22.742          0.99993       -0.158215          0.99993       -0.158215        0.0130759         155.306
0.0106                 0.0128951        -22.9762         0.999915       -0.304699         0.999915       -0.304699        0.0130702         155.266
0.0159                  0.012873        -22.9998           0.9999        -0.45458           0.9999        -0.45458        0.0130751         154.959
0.0212                 0.0128478        -22.9586         0.999886       -0.605308         0.999886       -0.605308        0.0130889         154.597
0.0265                 0.0128234         -22.887         0.999872       -0.756374         0.999872       -0.756374        0.0131084         154.218
0.0318                 0.0127957         -22.807         0.999857       -0.907611         0.999857       -0.907611        0.0131269         153.824
0.0371                 0.0127703        -22.7139         0.999843        -1.05894         0.999843        -1.05894        0.0131491         153.428
0.0424                 0.0127528        -22.5998         0.999828        -1.21033         0.999828        -1.21033        0.0131799         153.046
0.0477                 0.0127322        -22.4878         0.999813        -1.36177         0.999813        -1.36177         0.013208         152.656
0.053                  0.0127086        -22.3784         0.999799        -1.51323         0.999799        -1.51323        0.0132337         152.258
0.0583                 0.0126811        -22.2741         0.999784        -1.66471         0.999784        -1.66471        0.0132556         151.852
0.0636                 0.0126548        -22.1656          0.99977        -1.81621          0.99977        -1.81621         0.013279         151.448
0.0689                 0.0126296        -22.0534         0.999755        -1.96772         0.999755        -1.96772        0.0133036         151.046
0.0742                 0.0126047        -21.9394          0.99974        -2.11924          0.99974        -2.11924        0.0133285         150.644
0.0795                 0.0125796        -21.8245         0.999726        -2.27077         0.999726        -2.27077        0.0133533         150.241
0.0848                 0.0125541        -21.7091         0.999711         -2.4223         0.999711         -2.4223        0.0133777         149.838
0.0901                 0.0125286        -21.5925         0.999696        -2.57384         0.999696        -2.57384        0.0134023         149.435
0.0954                 0.0125033        -21.4747         0.999682        -2.72538         0.999682        -2.72538        0.0134269         149.032
0.1007                 0.0124779         -21.356         0.999667        -2.87693         0.999667        -2.87693        0.0134516          148.63
0.106                  0.0124526        -21.2365         0.999652        -3.02847         0.999652        -3.02847        0.0134762         148.227
0.1113                 0.0124271        -21.1161         0.999637        -3.18003         0.999637        -3.18003        0.0135007         147.824
0.1166                 0.0124017        -20.9948         0.999622        -3.33158         0.999622        -3.33158        0.0135252         147.422
0.1219                 0.0123764        -20.8726         0.999607        -3.48314         0.999607        -3.48314        0.0135498         147.019
0.1272                  0.012351        -20.7495         0.999593        -3.63469         0.999593        -3.63469        0.0135743         146.617
0.1325                 0.0123256        -20.6256         0.999578        -3.78625         0.999578        -3.78625        0.0135988         146.215
0.1378                 0.0123003        -20.5009         0.999563        -3.93781         0.999563        -3.93781        0.0136233         145.814
0.1431                 0.0122749        -20.3753         0.999548        -4.08938         0.999548        -4.08938        0.0136477         145.412
0.1484                 0.0122496        -20.2488         0.999533        -4.24094         0.999533        -4.24094        0.0136721         145.011
0.1537                 0.0122243        -20.1215         0.999518         -4.3925         0.999518         -4.3925        0.0136966          144.61
0.159                   0.012199        -19.9933         0.999502        -4.54407         0.999502        -4.54407        0.0137209         144.209
0.1643                 0.0121737        -19.8643         0.999487        -4.69564         0.999487        -4.69564        0.0137453         143.808
0.1696                 0.0121484        -19.7344         0.999472         -4.8472         0.999472         -4.8472        0.0137696         143.407
0.1749                 0.0121232        -19.6036         0.999457        -4.99877         0.999457        -4.99877         0.013794         143.007
0.1802                 0.0120979         -19.472         0.999442        -5.15034         0.999442        -5.15034        0.0138182         142.606
0.1855                 0.0120727        -19.3394         0.999427        -5.30191         0.999427        -5.30191        0.0138425         142.206
0.1908                 0.0120476         -19.206         0.999411        -5.45348         0.999411        -5.45348        0.0138668         141.807
0.1961                 0.0120224        -19.0717         0.999396        -5.60505         0.999396        -5.60505         0.013891         141.407
0.2014                 0.0119973        -18.9365         0.999381        -5.75662         0.999381        -5.75662        0.0139152         141.007
0.2067                 0.0119722        -18.8003         0.999366        -5.90819         0.999366        -5.90819        0.0139394         140.608
0.212                  0.0119472        -18.6633          0.99935        -6.05976          0.99935        -6.05976        0.0139635         140.209
0.2173                 0.0119221        -18.5253         0.999335        -6.21133         0.999335        -6.21133        0.0139877          139.81
0.2226                 0.0118971        -18.3863         0.999319         -6.3629         0.999319         -6.3629        0.0140118         139.411
0.2279                 0.0118722        -18.2465         0.999304        -6.51448         0.999304        -6.51448        0.0140359         139.012
0.2332                 0.0118472        -18.1056         0.999289        -6.66605         0.999289        -6.66605          0.01406         138.614
0.2385                 0.0118223        -17.9639         0.999273        -6.81762         0.999273        -6.81762        0.0140841         138.216
0.2438                 0.0117975        -17.8211         0.999258         -6.9692         0.999258         -6.9692        0.0141081         137.817
0.2491                 0.0117727        -17.6773         0.999242        -7.12077         0.999242        -7.12077        0.0141322         137.419
0.2544                 0.0117479        -17.5326         0.999226        -7.27235         0.999226        -7.27235        0.0141562         137.021
0.2597                 0.0117231        -17.3869         0.999211        -7.42392         0.999211        -7.42392        0.0141802         136.623
0.265                  0.0116984        -17.2401         0.999195         -7.5755         0.999195         -7.5755        0.0142042         136.226
0.2703                 0.0116738        -17.0923          0.99918        -7.72707          0.99918        -7.72707        0.0142281         135.828
0.2756                 0.0116492        -16.9435         0.999164        -7.87865         0.999164        -7.87865        0.0142521         135.431
0.2809                 0.0116246        -16.7937         0.999148        -8.03023         0.999148        -8.03023         0.014276         135.034
0.2862                 0.0116001        -16.6428         0.999133         -8.1818         0.999133         -8.1818           0.0143         134.636
0.2915                 0.0115756        -16.4908         0.999117        -8.33338         0.999117        -8.33338        0.0143239         134.239
0.2968                 0.0115512        -16.3378         0.999101        -8.48496         0.999101        -8.48496        0.0143478         133.842
0.3021                 0.0115269        -16.1837         0.999085        -8.63653         0.999085        -8.63653        0.0143717         133.445
0.3074                 0.0115025        -16.0285         0.999069        -8.78811         0.999069        -8.78811        0.0143956         133.049
0.3127                 0.0114783        -15.8722         0.999053        -8.93969         0.999053        -8.93969        0.0144195         132.652
0.318                  0.0114541        -15.7148         0.999038        -9.09127         0.999038        -9.09127        0.0144434         132.255
0.3233                   0.01143        -15.5563         0.999022        -9.24285         0.999022        -9.24285        0.0144673         131.859
0.3286                 0.0114059        -15.3966         0.999006        -9.39442         0.999006        -9.39442        0.0144911         131.463
0.3339                 0.0113819        -15.2358          0.99899          -9.546          0.99899          -9.546         0.014515         131.066
0.3392                 0.0113579        -15.0739         0.998974        -9.69758         0.998974        -9.69758        0.0145389          130.67
0.3445                  0.011334        -14.9108         0.998958        -9.84916         0.998958        -9.84916        0.0145627         130.274
0.3498                 0.0113102        -14.7465         0.998942        -10.0007         0.998942        -10.0007        0.0145866         129.878
0.3551                 0.0112865         -14.581         0.998926        -10.1523         0.998926        -10.1523        0.0146105         129.482
0.3604                 0.0112628        -14.4143         0.998909        -10.3039         0.998909        -10.3039        0.0146343         129.086
0.3657                 0.0112392        -14.2465         0.998893        -10.4555         0.998893        -10.4555        0.0146582          128.69
0.371                  0.0112156        -14.0774         0.998877        -10.6071         0.998877        -10.6071         0.014682         128.294
0.3763                 0.0111922        -13.9071         0.998861        -10.7586         0.998861        -10.7586        0.0147059         127.898
0.3816                 0.0111688        -13.7356         0.998845        -10.9102         0.998845        -10.9102        0.0147298         127.503
0.3869                 0.0111455        -13.5628         0.998828        -11.0618         0.998828        -11.0618        0.0147536         127.107
0.3922                 0.0111223        -13.3888         0.998812        -11.2134         0.998812        -11.2134        0.0147775         126.711
0.3975                 0.0110992        -13.2135         0.998796         -11.365         0.998796         -11.365        0.0148014         126.316
0.4028                 0.0110761        -13.0369          0.99878        -11.5165          0.99878        -11.5165        0.0148253          125.92
0.4081                 0.0110532         -12.859         0.998763        -11.6681         0.998763        -11.6681        0.0148492         125.525
0.4134                 0.0110303        -12.6799         0.998747        -11.8197         0.998747        -11.8197        0.0148731         125.129
0.4187                 0.0110075        -12.4994          0.99873        -11.9713          0.99873        -11.9713        0.0148971         124.734
0.424                  0.0109849        -12.3177         0.998714        -12.1229         0.998714        -12.1229         0.014921         124.339
0.4293                 0.0109623        -12.1346         0.998697        -12.2745         0.998697        -12.2745         0.014945         123.943
0.4346                 0.0109398        -11.9501         0.998681         -12.426         0.998681         -12.426        0.0149689         123.548
0.4399                 0.0109174        -11.7644         0.998664        -12.5776         0.998664        -12.5776        0.0149929         123.153
0.4452                 0.0108952        -11.5773         0.998648        -12.7292         0.998648        -12.7292        0.0150169         122.757
0.4505                  0.010873        -11.3888         0.998631        -12.8808         0.998631        -12.8808        0.0150409         122.362
0.4558                 0.0108509        -11.1989         0.998615        -13.0324         0.998615        -13.0324         0.015065         121.967
0.4611                  0.010829        -11.0077         0.998598         -13.184         0.998598         -13.184         0.015089         121.572
0.4664                 0.0108072        -10.8151         0.998581        -13.3355         0.998581        -13.3355        0.0151131         121.177
0.4717                 0.0107855        -10.6211         0.998565        -13.4871         0.998565        -13.4871        0.0151372         120.781
0.477                  0.0107639        -10.4257         0.998548        -13.6387         0.998548        -13.6387        0.0151613         120.386
0.4823                 0.0107424        -10.2288         0.998531        -13.7903         0.998531        -13.7903        0.0151855         119.991
0.4876                  0.010721        -10.0306         0.998514        -13.9419         0.998514        -13.9419        0.0152097         119.596
0.4929                 0.0106998        -9.83088         0.998498        -14.0935         0.998498        -14.0935        0.0152338         119.201
0.4982                 0.0106787        -9.62975         0.998481        -14.2451         0.998481        -14.2451        0.0152581         118.806
0.5035                 0.0106578        -9.42718         0.998464        -14.3966         0.998464        -14.3966        0.0152823         118.411
0.5088                 0.0106369        -9.22314         0.998447        -14.5482         0.998447        -14.5482        0.0153066         118.015
0.5141                 0.0106163        -9.01764          0.99843        -14.6998          0.99843        -14.6998         0.015331          117.62
0.5194                 0.0105957        -8.81068         0.998413        -14.8514         0.998413        -14.8514        0.0153553         117.225
0.5247                 0.0105753        -8.60224         0.998396         -15.003         0.998396         -15.003        0.0153797          116.83
0.53                    0.010555        -8.39232         0.998379        -15.1546         0.998379        -15.1546        0.0154041         116.435
0.5353                 0.0105349         -8.1809         0.998362        -15.3062         0.998362        -15.3062        0.0154286          116.04
0.5406                  0.010515        -7.96798         0.998345        -15.4578         0.998345        -15.4578        0.0154531         115.645
0.5459                 0.0104952        -7.75356         0.998328        -15.6093         0.998328        -15.6093        0.0154776          115.25
0.5512                 0.0104755        -7.53763         0.998311        -15.7609         0.998311        -15.7609        0.0155022         114.854
0.5565                  0.010456        -7.32019         0.998294        -15.9125         0.998294        -15.9125        0.0155268         114.459
0.5618                 0.0104367        -7.10122         0.998276        -16.0641         0.998276        -16.0641        0.0155515         114.064
0.5671                 0.0104176        -6.88072         0.998259        -16.2157         0.998259        -16.2157        0.0155762         113.669
0.5724                 0.0103986         -6.6587         0.998242        -16.3673         0.998242        -16.3673        0.0156009         113.274
0.5777                 0.0103798        -6.43514         0.998225        -16.5189         0.998225        -16.5189        0.0156257         112.879
0.583                  0.0103611        -6.21004         0.998207        -16.6705         0.998207        -16.6705        0.0156506         112.483
0.5883                 0.0103427        -5.98339          0.99819         -16.822          0.99819         -16.822        0.0156755         112.088
0.5936                 0.0103244        -5.75519         0.998173        -16.9736         0.998173        -16.9736        0.0157004         111.693
0.5989                 0.0103063        -5.52545         0.998155        -17.1252         0.998155        -17.1252        0.0157254         111.298
0.6042                 0.0102884        -5.29414         0.998138        -17.2768         0.998138        -17.2768        0.0157505         110.902
0.6095                 0.0102707        -5.06129         0.998121        -17.4284         0.998121        -17.4284        0.0157756         110.507
0.6148                 0.0102532        -4.82686         0.998103          -17.58         0.998103          -17.58        0.0158007         110.112
0.6201                  0.010236        -4.59088         0.998086        -17.7316         0.998086        -17.7316        0.0158259         109.717
0.6254                 0.0102188        -4.35334         0.998068        -17.8832         0.998068        -17.8832        0.0158512         109.321
0.6307                  0.010202        -4.11422         0.998051        -18.0348         0.998051        -18.0348        0.0158765         108.926
0.636                  0.0101853        -3.87355         0.998033        -18.1864         0.998033        -18.1864        0.0159019         108.531
0.6413                 0.0101688         -3.6313         0.998015         -18.338         0.998015         -18.338        0.0159274         108.135
0.6466                 0.0101526        -3.38749         0.997998        -18.4895         0.997998        -18.4895        0.0159529          107.74
0.6519                 0.0101365        -3.14212          0.99798        -18.6411          0.99798        -18.6411        0.0159785         107.345
0.6572                 0.0101207        -2.89518         0.997962        -18.7927         0.997962        -18.7927        0.0160042         106.949
0.6625                 0.0101051        -2.64667         0.997945        -18.9443         0.997945        -18.9443        0.0160299         106.554
0.6678                 0.0100898        -2.39661         0.997927        -19.0959         0.997927        -19.0959        0.0160557         106.158
0.6731                 0.0100747        -2.14498         0.997909        -19.2475         0.997909        -19.2475        0.0160815         105.763
0.6784                 0.0100598         -1.8918         0.997891        -19.3991         0.997891        -19.3991        0.0161075         105.368
0.6837                 0.0100452        -1.63706         0.997874        -19.5507         0.997874        -19.5507        0.0161335         104.972
0.689                  0.0100308        -1.38077         0.997856        -19.7023         0.997856        -19.7023        0.0161595         104.577
0.6943                 0.0100166        -1.12294         0.997838        -19.8539         0.997838        -19.8539        0.0161857         104.181
0.6996                 0.0100028       -0.863569          0.99782        -20.0055          0.99782        -20.0055        0.0162119         103.786
0.7049                0.00998914       -0.602658         0.997802        -20.1571         0.997802        -20.1571        0.0162382          103.39
0.7102                0.00997578       -0.340216         0.997784        -20.3087         0.997784        -20.3087        0.0162646         102.995
0.7155                0.00996268       -0.076249         0.997766        -20.4603         0.997766        -20.4603        0.0162911         102.599
0.7208                0.00994986        0.189229         0.997748        -20.6119         0.997748        -20.6119        0.0163176         102.204
0.7261                0.00993731        0.456218          0.99773        -20.7634          0.99773        -20.7634        0.0163443         101.808
0.7314                0.00992502        0.724712         0.997712         -20.915         0.997712         -20.915         0.016371         101.412
0.7367                0.00991302        0.994701         0.997694        -21.0666         0.997694        -21.0666        0.0163978         101.017
0.742                  0.0099013         1.26617         0.997675        -21.2182         0.997675        -21.2182        0.0164247         100.621
0.7473                0.00988989         1.53911         0.997657        -21.3698         0.997657        -21.3698        0.0164516         100.226
0.7526                0.00987876         1.81352         0.997639        -21.5214         0.997639        -21.5214        0.0164787         99.8303
0.7579                0.00986792         2.08938         0.997621         -21.673         0.997621         -21.673        0.0165059         99.4347
0.7632                0.00985737         2.36669         0.997603        -21.8246         0.997603        -21.8246        0.0165331         99.0392
0.7685                0.00984713         2.64542         0.997584        -21.9762         0.997584        -21.9762        0.0165605         98.6436
0.7738                0.00983722         2.92557         0.997566        -22.1278         0.997566        -22.1278        0.0165879         98.2481
0.7791                0.00982761         3.20711         0.997548        -22.2794         0.997548        -22.2794        0.0166155         97.8526
0.7844                0.00981831         3.49006         0.997529         -22.431         0.997529         -22.431        0.0166431          97.457
0.7897                0.00980932         3.77438         0.997511        -22.5826         0.997511        -22.5826        0.0166709         97.0615
0.795                 0.00980066         4.06006         0.997492        -22.7342         0.997492        -22.7342        0.0166987         96.6659
0.8003                0.00979234         4.34707         0.997474        -22.8858         0.997474        -22.8858        0.0167266         96.2704
0.8056                0.00978434         4.63541         0.997455        -23.0374         0.997455        -23.0374        0.0167547          95.875
0.8109                0.00977667         4.92507         0.997437         -23.189         0.997437         -23.189        0.0167828         95.4795
0.8162                0.00976934         5.21602         0.997418        -23.3406         0.997418        -23.3406        0.0168111          95.084
0.8215                0.00976236         5.50824           0.9974        -23.4922           0.9974        -23.4922        0.0168395         94.6885
0.8268                0.00975573         5.80171         0.997381        -23.6438         0.997381        -23.6438        0.0168679         94.2931
0.8321                0.00974945         6.09641         0.997362        -23.7954         0.997362        -23.7954        0.0168965         93.8977
0.8374                0.00974352         6.39234         0.997344         -23.947         0.997344         -23.947        0.0169252         93.5023
0.8427                0.00973794         6.68945         0.997325        -24.0986         0.997325        -24.0986         0.016954         93.1069
0.848                 0.00973272         6.98774         0.997306        -24.2502         0.997306        -24.2502         0.016983         92.7116
0.8533                0.00972789         7.28717         0.997288        -24.4018         0.997288        -24.4018         0.017012         92.3163
0.8586                0.00972341         7.58772         0.997269        -24.5534         0.997269        -24.5534        0.0170412          91.921
0.8639                0.00971931         7.88939          0.99725         -24.705          0.99725         -24.705        0.0170705         91.5258
0.8692                0.00971558         8.19213         0.997231        -24.8566         0.997231        -24.8566        0.0170999         91.1306
0.8745                0.00971223         8.49593         0.997212        -25.0082         0.997212        -25.0082        0.0171294         90.7354
0.8798                0.00970927         8.80073         0.997193        -25.1598         0.997193        -25.1598         0.017159         90.3403
0.8851                 0.0097067         9.10655         0.997174        -25.3114         0.997174        -25.3114        0.0171888         89.9452
0.8904                0.00970452         9.41334         0.997155         -25.463         0.997155         -25.463        0.0172187         89.5501
0.8957                0.00970273         9.72109         0.997136        -25.6146         0.997136        -25.6146        0.0172487         89.1551
0.901                 0.00970133         10.0298         0.997117        -25.7662         0.997117        -25.7662        0.0172788         88.7601
0.9063                0.00970036         10.3393         0.997098        -25.9178         0.997098        -25.9178        0.0173091         88.3652
0.9116                0.00969978         10.6497         0.997079        -26.0694         0.997079        -26.0694        0.0173395         87.9704
0.9169                0.00969961         10.9609          0.99706         -26.221          0.99706         -26.221        0.0173701         87.5756
0.9222                0.00969984          11.273         0.997041        -26.3726         0.997041        -26.3726        0.0174007         87.1808
0.9275                0.00970049         11.5858         0.997022        -26.5242         0.997022        -26.5242        0.0174315         86.7861
0.9328                0.00970158         11.8993         0.997003        -26.6758         0.997003        -26.6758        0.0174625         86.3915
0.9381                0.00970308         12.2136         0.996983        -26.8274         0.996983        -26.8274        0.0174936          85.997
0.9434                  0.009705         12.5285         0.996964        -26.9791         0.996964        -26.9791        0.0175248         85.6025
0.9487                0.00970735         12.8441         0.996945        -27.1307         0.996945        -27.1307        0.0175561         85.2081
0.954                 0.00971013         13.1603         0.996925        -27.2823         0.996925        -27.2823        0.0175876         84.8137
0.9593                0.00971336          13.477         0.996906        -27.4339         0.996906        -27.4339        0.0176193         84.4195
0.9646                0.00971702         13.7943         0.996887        -27.5855         0.996887        -27.5855        0.0176511         84.0253
0.9699                0.00972111         14.1121         0.996867        -27.7371         0.996867        -27.7371         0.017683         83.6312
0.9752                0.00972565         14.4304         0.996848        -27.8887         0.996848        -27.8887         0.017715         83.2371
0.9805                0.00973064         14.7491         0.996828        -28.0403         0.996828        -28.0403        0.0177473         82.8432
0.9858                0.00973609         15.0682         0.996809        -28.1919         0.996809        -28.1919        0.0177796         82.4493
0.9911                0.00974198         15.3877         0.996789        -28.3435         0.996789        -28.3435        0.0178121         82.0556
0.9964                0.00974833         15.7075          0.99677        -28.4951          0.99677        -28.4951        0.0178448         81.6619