! TOUCHSTONE file generated by CST MICROWAVE STUDIO
! Date and time: Tue Jan  7 09:43:35 2020
! Project name: OSHPark_FR408_Transition2.cst
! Parameters = {GND_Plane_XMax=11.5; Cap_Disk_XOffset=0; Cap_Disk2_YCenter=-1.03; Cap_Disk_YCenter=1.03; Cap_Disk_XCenter=7.39; Cap_Disk_Radius=0.5; BottomSupport_Left_YMax=4.76; BottomSupport_Left_YMin=3.74; BottomSupport_Right_YMax=-3.74; BottomSupport_Right_YMin=-4.76; BottomSupport_XMax=11.64; BottomSupport_XMin=6.89; BottomSupport_ZMax=-1.64084; BottomSupport_ZMin=-3.58; Cu1_Thickness=0.03556; Cu2_Thickness=0.01778; Fr408Core_Thickness=1.1938; GND_Plane_Offset=2.875; PCBThickness=1.6256; Prepreg1_Zmin=-0.20574; Prepreg_Thickness=0.17018; RFTraceYMax=0.17145; RFTrace_XMax=15; RFTrace_XMin=11.46; RFTrace_YMin=-0.17145; SMA_CenterCond_Inner_XMax=11.64; SMA_CenterCond_Radius=0.6; SMA_Dielectric_InnerRadius=0.6; SMA_Dielectric_OuterRadius=2; SMA_Dielectric_XMax=5.62; SMA_Dielectric_XMin=0; SMA_Dielectric_YCenter=0; SMA_Dielectric_ZCenter=0; SMA_Footprint_Center_XMax=12.49; SMA_Footprint_Center_XMin=7.74; SMA_Footprint_Center_YMax=0.75; SMA_Footprint_Center_YMin=-0.75; SMA_OuterCond_InnerRadius=2; SMA_OuterCond_OuterRadius=3; SMA_OuterCond_XMax=6.89; SMA_XMax=6.67; SMA_XMin=0; SMA_YCenter=0; SMA_ZCenter=0; TopSupport_ZMax=1.02; TopSupport_ZMin=0; Via1_XCenter=7.5; Via1_YCenter=-4.25; Via2_XCenter=8.75; Via2_YCenter=-4.25; Via3_XCenter=10; Via3_YCenter=-4.25; Via4_XCenter=11.25; Via4_YCenter=-4.25; Via5_XCenter=7.5; Via5_YCenter=4.25; Via6_XCenter=8.75; Via6_YCenter=4.25; Via7_XCenter=10; Via7_YCenter=4.25; Via8_XCenter=11.25; Via8_YCenter=4.25; ViaInnerRadius=0; ViaOuterRadius=0.381}
! Header version: 2015
! Port assignment regex: !\s*Touchstone port\s*([0-9]+)\s*=\s*CST MWS port\s*([0-9]+)\s*\(\"(.*)\"\)(\s*mode\s*([0-9]+))?.*
! Touchstone port assignment:
! Touchstone port 1 = CST MWS port 1 ("")
! Touchstone port 2 = CST MWS port 2 ("")
# GHz S MA R 50
0                       0.103202               0         0.907698               0         0.907698               0        0.0812963               0
0.0053                 0.0129774        -23.7959         0.999928       -0.161012         0.999928       -0.161012        0.0130109         155.958
0.0106                 0.0130794        -24.8763         0.999911       -0.310268         0.999911       -0.310268        0.0129272          156.78
0.0159                 0.0131415        -25.7494         0.999894       -0.462935         0.999894       -0.462935        0.0128521         157.334
0.0212                 0.0132028        -26.5511         0.999878       -0.616451         0.999878       -0.616451        0.0127884         157.841
0.0265                 0.0132674        -27.3148         0.999861       -0.770307         0.999861       -0.770307         0.012733         158.337
0.0318                 0.0133297        -28.0667         0.999845       -0.924333         0.999845       -0.924333        0.0126777         158.821
0.0371                 0.0133966        -28.7977         0.999828        -1.07846         0.999828        -1.07846        0.0126288          159.31
0.0424                 0.0134745        -29.4938         0.999811        -1.23263         0.999811        -1.23263        0.0125931         159.816
0.0477                 0.0135502        -30.1887         0.999795        -1.38685         0.999795        -1.38685        0.0125557         160.318
0.053                  0.0136238        -30.8831         0.999778         -1.5411         0.999778         -1.5411        0.0125168         160.816
0.0583                 0.0136942        -31.5811         0.999761        -1.69538         0.999761        -1.69538         0.012475         161.311
0.0636                 0.0137676        -32.2678         0.999744        -1.84966         0.999744        -1.84966        0.0124368         161.811
0.0689                 0.0138436        -32.9436         0.999728        -2.00396         0.999728        -2.00396        0.0124023         162.317
0.0742                 0.0139213        -33.6115         0.999711        -2.15827         0.999711        -2.15827          0.01237         162.825
0.0795                 0.0140002        -34.2729         0.999694        -2.31258         0.999694        -2.31258        0.0123397         163.337
0.0848                   0.01408        -34.9285         0.999677         -2.4669         0.999677         -2.4669        0.0123108         163.851
0.0901                 0.0141611         -35.577          0.99966        -2.62123          0.99966        -2.62123         0.012284         164.369
0.0954                 0.0142436        -36.2185         0.999643        -2.77556         0.999643        -2.77556        0.0122594         164.889
0.1007                 0.0143274        -36.8534         0.999625        -2.92989         0.999625        -2.92989        0.0122368         165.411
0.106                  0.0144123        -37.4817         0.999608        -3.08423         0.999608        -3.08423        0.0122162         165.936
0.1113                 0.0144984        -38.1036         0.999591        -3.23856         0.999591        -3.23856        0.0121975         166.463
0.1166                 0.0145857         -38.719         0.999574         -3.3929         0.999574         -3.3929        0.0121809         166.991
0.1219                 0.0146742        -39.3278         0.999557        -3.54725         0.999557        -3.54725        0.0121664         167.522
0.1272                 0.0147639        -39.9302         0.999539        -3.70159         0.999539        -3.70159        0.0121539         168.054
0.1325                 0.0148546        -40.5263         0.999522        -3.85593         0.999522        -3.85593        0.0121434         168.587
0.1378                 0.0149464        -41.1161         0.999504        -4.01028         0.999504        -4.01028         0.012135         169.121
0.1431                 0.0150394        -41.6996         0.999487        -4.16462         0.999487        -4.16462        0.0121286         169.655
0.1484                 0.0151334        -42.2769         0.999469        -4.31897         0.999469        -4.31897        0.0121243          170.19
0.1537                 0.0152284         -42.848         0.999452        -4.47332         0.999452        -4.47332         0.012122         170.726
0.159                  0.0153244         -43.413         0.999434        -4.62767         0.999434        -4.62767        0.0121218         171.261
0.1643                 0.0154214         -43.972         0.999417        -4.78201         0.999417        -4.78201        0.0121236         171.797
0.1696                 0.0155195        -44.5249         0.999399        -4.93636         0.999399        -4.93636        0.0121275         172.331
0.1749                 0.0156184         -45.072         0.999381        -5.09071         0.999381        -5.09071        0.0121334         172.865
0.1802                 0.0157183        -45.6131         0.999363        -5.24506         0.999363        -5.24506        0.0121414         173.398
0.1855                 0.0158192        -46.1484         0.999346        -5.39941         0.999346        -5.39941        0.0121514          173.93
0.1908                 0.0159209         -46.678         0.999328        -5.55376         0.999328        -5.55376        0.0121635          174.46
0.1961                 0.0160235        -47.2018          0.99931        -5.70811          0.99931        -5.70811        0.0121775         174.988
0.2014                  0.016127          -47.72         0.999292        -5.86246         0.999292        -5.86246        0.0121936         175.515
0.2067                 0.0162313        -48.2327         0.999274        -6.01681         0.999274        -6.01681        0.0122117         176.039
0.212                  0.0163365        -48.7398         0.999256        -6.17116         0.999256        -6.17116        0.0122318         176.561
0.2173                 0.0164424        -49.2415         0.999238        -6.32551         0.999238        -6.32551        0.0122539          177.08
0.2226                 0.0165492        -49.7378          0.99922        -6.47986          0.99922        -6.47986        0.0122779         177.597
0.2279                 0.0166567        -50.2288         0.999201        -6.63422         0.999201        -6.63422        0.0123039          178.11
0.2332                  0.016765        -50.7145         0.999183        -6.78857         0.999183        -6.78857        0.0123319          178.62
0.2385                 0.0168741        -51.1951         0.999165        -6.94292         0.999165        -6.94292        0.0123618         179.126
0.2438                 0.0169839        -51.6705         0.999147        -7.09727         0.999147        -7.09727        0.0123936         179.629
0.2491                 0.0170944        -52.1409         0.999128        -7.25162         0.999128        -7.25162        0.0124273        -179.873
0.2544                 0.0172055        -52.6062          0.99911        -7.40597          0.99911        -7.40597        0.0124629        -179.378
0.2597                 0.0173174        -53.0667         0.999092        -7.56032         0.999092        -7.56032        0.0125003        -178.888
0.265                  0.0174299        -53.5223         0.999073        -7.71467         0.999073        -7.71467        0.0125396        -178.402
0.2703                 0.0175431        -53.9731         0.999055        -7.86902         0.999055        -7.86902        0.0125808        -177.921
0.2756                  0.017657        -54.4192         0.999036        -8.02337         0.999036        -8.02337        0.0126237        -177.444
0.2809                 0.0177714        -54.8606         0.999017        -8.17772         0.999017        -8.17772        0.0126685        -176.973
0.2862                 0.0178865        -55.2974         0.998999        -8.33206         0.998999        -8.33206         0.012715        -176.506
0.2915                 0.0180022        -55.7297          0.99898        -8.48641          0.99898        -8.48641        0.0127632        -176.045
0.2968                 0.0181184        -56.1575         0.998961        -8.64076         0.998961        -8.64076        0.0128132        -175.589
0.3021                 0.0182352        -56.5809         0.998943        -8.79511         0.998943        -8.79511        0.0128649        -175.138
0.3074                 0.0183526             -57         0.998924        -8.94946         0.998924        -8.94946        0.0129183        -174.693
0.3127                 0.0184705        -57.4147         0.998905        -9.10381         0.998905        -9.10381        0.0129733        -174.254
0.318                   0.018589        -57.8253         0.998886        -9.25815         0.998886        -9.25815          0.01303         -173.82
0.3233                  0.018708        -58.2317         0.998867         -9.4125         0.998867         -9.4125        0.0130883        -173.392
0.3286                 0.0188275         -58.634         0.998848        -9.56685         0.998848        -9.56685        0.0131482         -172.97
0.3339                 0.0189475        -59.0323         0.998829         -9.7212         0.998829         -9.7212        0.0132097        -172.555
0.3392                  0.019068        -59.4265          0.99881        -9.87554          0.99881        -9.87554        0.0132727        -172.145
0.3445                 0.0191889        -59.8169         0.998791        -10.0299         0.998791        -10.0299        0.0133372        -171.741
0.3498                 0.0193103        -60.2034         0.998772        -10.1842         0.998772        -10.1842        0.0134033        -171.343
0.3551                 0.0194322        -60.5861         0.998752        -10.3386         0.998752        -10.3386        0.0134708        -170.952
0.3604                 0.0195545        -60.9651         0.998733        -10.4929         0.998733        -10.4929        0.0135398        -170.567
0.3657                 0.0196773        -61.3403         0.998714        -10.6473         0.998714        -10.6473        0.0136102        -170.188
0.371                  0.0198005         -61.712         0.998695        -10.8016         0.998695        -10.8016         0.013682        -169.816
0.3763                 0.0199241          -62.08         0.998675         -10.956         0.998675         -10.956        0.0137552        -169.449
0.3816                 0.0200481        -62.4445         0.998656        -11.1103         0.998656        -11.1103        0.0138297         -169.09
0.3869                 0.0201725        -62.8056         0.998636        -11.2646         0.998636        -11.2646        0.0139056        -168.736
0.3922                 0.0202973        -63.1632         0.998617         -11.419         0.998617         -11.419        0.0139828        -168.389
0.3975                 0.0204224        -63.5175         0.998597        -11.5733         0.998597        -11.5733        0.0140612        -168.048
0.4028                  0.020548        -63.8684         0.998578        -11.7277         0.998578        -11.7277         0.014141        -167.714
0.4081                 0.0206739        -64.2161         0.998558         -11.882         0.998558         -11.882         0.014222        -167.386
0.4134                 0.0208001        -64.5606         0.998538        -12.0364         0.998538        -12.0364        0.0143041        -167.064
0.4187                 0.0209267        -64.9019         0.998519        -12.1907         0.998519        -12.1907        0.0143875        -166.748
0.424                  0.0210536        -65.2401         0.998499         -12.345         0.998499         -12.345        0.0144721        -166.439
0.4293                 0.0211809        -65.5752         0.998479        -12.4994         0.998479        -12.4994        0.0145578        -166.136
0.4346                 0.0213084        -65.9072         0.998459        -12.6537         0.998459        -12.6537        0.0146446         -165.84
0.4399                 0.0214363        -66.2363         0.998439        -12.8081         0.998439        -12.8081        0.0147326        -165.549
0.4452                 0.0215645        -66.5625          0.99842        -12.9624          0.99842        -12.9624        0.0148216        -165.265
0.4505                  0.021693        -66.8858           0.9984        -13.1167           0.9984        -13.1167        0.0149117        -164.987
0.4558                 0.0218217        -67.2062          0.99838        -13.2711          0.99838        -13.2711        0.0150028        -164.715
0.4611                 0.0219508        -67.5238          0.99836        -13.4254          0.99836        -13.4254         0.015095        -164.449
0.4664                 0.0220801        -67.8387         0.998339        -13.5798         0.998339        -13.5798        0.0151881        -164.189
0.4717                 0.0222097        -68.1509         0.998319        -13.7341         0.998319        -13.7341        0.0152823        -163.935
0.477                  0.0223396        -68.4604         0.998299        -13.8884         0.998299        -13.8884        0.0153774        -163.687
0.4823                 0.0224697        -68.7672         0.998279        -14.0428         0.998279        -14.0428        0.0154734        -163.445
0.4876                    0.0226        -69.0715         0.998259        -14.1971         0.998259        -14.1971        0.0155704        -163.208
0.4929                 0.0227306        -69.3732         0.998238        -14.3514         0.998238        -14.3514        0.0156682        -162.978
0.4982                 0.0228615        -69.6724         0.998218        -14.5058         0.998218        -14.5058        0.0157669        -162.753
0.5035                 0.0229925        -69.9691         0.998198        -14.6601         0.998198        -14.6601        0.0158665        -162.533
0.5088                 0.0231238        -70.2633         0.998177        -14.8145         0.998177        -14.8145         0.015967        -162.319
0.5141                 0.0232553        -70.5552         0.998157        -14.9688         0.998157        -14.9688        0.0160683        -162.111
0.5194                 0.0233871        -70.8446         0.998136        -15.1231         0.998136        -15.1231        0.0161704        -161.908
0.5247                  0.023519        -71.1318         0.998116        -15.2775         0.998116        -15.2775        0.0162732        -161.711
0.53                   0.0236511        -71.4167         0.998095        -15.4318         0.998095        -15.4318        0.0163769        -161.519
0.5353                 0.0237834        -71.6992         0.998075        -15.5861         0.998075        -15.5861        0.0164813        -161.332
0.5406                  0.023916        -71.9796         0.998054        -15.7405         0.998054        -15.7405        0.0165865        -161.151
0.5459                 0.0240486        -72.2578         0.998033        -15.8948         0.998033        -15.8948        0.0166923        -160.974
0.5512                 0.0241815        -72.5338         0.998012        -16.0491         0.998012        -16.0491        0.0167989        -160.803
0.5565                 0.0243146        -72.8077         0.997992        -16.2034         0.997992        -16.2034        0.0169062        -160.637
0.5618                 0.0244478        -73.0794         0.997971        -16.3578         0.997971        -16.3578        0.0170142        -160.475
0.5671                 0.0245812        -73.3491          0.99795        -16.5121          0.99795        -16.5121        0.0171228        -160.319
0.5724                 0.0247147        -73.6168         0.997929        -16.6664         0.997929        -16.6664        0.0172321        -160.167
0.5777                 0.0248484        -73.8824         0.997908        -16.8208         0.997908        -16.8208         0.017342         -160.02
0.583                  0.0249823        -74.1461         0.997887        -16.9751         0.997887        -16.9751        0.0174525        -159.878
0.5883                 0.0251163        -74.4078         0.997866        -17.1294         0.997866        -17.1294        0.0175637        -159.741
0.5936                 0.0252505        -74.6676         0.997845        -17.2837         0.997845        -17.2837        0.0176754        -159.608
0.5989                 0.0253847        -74.9255         0.997824        -17.4381         0.997824        -17.4381        0.0177877         -159.48
0.6042                 0.0255191        -75.1815         0.997803        -17.5924         0.997803        -17.5924        0.0179006        -159.356
0.6095                 0.0256537        -75.4357         0.997781        -17.7467         0.997781        -17.7467         0.018014        -159.236
0.6148                 0.0257884        -75.6881          0.99776         -17.901          0.99776         -17.901         0.018128        -159.121
0.6201                 0.0259232        -75.9386         0.997739        -18.0554         0.997739        -18.0554        0.0182425         -159.01
0.6254                 0.0260581        -76.1875         0.997718        -18.2097         0.997718        -18.2097        0.0183575        -158.903
0.6307                 0.0261931        -76.4346         0.997696         -18.364         0.997696         -18.364         0.018473        -158.801
0.636                  0.0263282        -76.6799         0.997675        -18.5183         0.997675        -18.5183         0.018589        -158.702
0.6413                 0.0264635        -76.9236         0.997653        -18.6727         0.997653        -18.6727        0.0187055        -158.608
0.6466                 0.0265988        -77.1656         0.997632         -18.827         0.997632         -18.827        0.0188225        -158.518
0.6519                 0.0267342         -77.406          0.99761        -18.9813          0.99761        -18.9813        0.0189399        -158.431
0.6572                 0.0268698        -77.6448         0.997589        -19.1356         0.997589        -19.1356        0.0190578        -158.348
0.6625                 0.0270054        -77.8819         0.997567          -19.29         0.997567          -19.29        0.0191761        -158.269
0.6678                 0.0271411        -78.1175         0.997546        -19.4443         0.997546        -19.4443        0.0192949        -158.194
0.6731                 0.0272769        -78.3515         0.997524        -19.5986         0.997524        -19.5986         0.019414        -158.123
0.6784                 0.0274127        -78.5841         0.997502        -19.7529         0.997502        -19.7529        0.0195336        -158.055
0.6837                 0.0275487        -78.8151          0.99748        -19.9072          0.99748        -19.9072        0.0196535        -157.991
0.689                  0.0276847        -79.0446         0.997459        -20.0615         0.997459        -20.0615        0.0197739         -157.93
0.6943                 0.0278208        -79.2726         0.997437        -20.2159         0.997437        -20.2159        0.0198946        -157.873
0.6996                  0.027957        -79.4992         0.997415        -20.3702         0.997415        -20.3702        0.0200157        -157.819
0.7049                 0.0280932        -79.7244         0.997393        -20.5245         0.997393        -20.5245        0.0201372        -157.769
0.7102                 0.0282295        -79.9481         0.997371        -20.6788         0.997371        -20.6788         0.020259        -157.722
0.7155                 0.0283658        -80.1705         0.997349        -20.8331         0.997349        -20.8331        0.0203812        -157.678
0.7208                 0.0285022        -80.3915         0.997327        -20.9874         0.997327        -20.9874        0.0205037        -157.637
0.7261                 0.0286387        -80.6111         0.997305        -21.1418         0.997305        -21.1418        0.0206265          -157.6
0.7314                 0.0287752        -80.8294         0.997283        -21.2961         0.997283        -21.2961        0.0207496        -157.566
0.7367                 0.0289118        -81.0464         0.997261        -21.4504         0.997261        -21.4504        0.0208731        -157.535
0.742                  0.0290484        -81.2621         0.997238        -21.6047         0.997238        -21.6047        0.0209968        -157.506
0.7473                  0.029185        -81.4765         0.997216         -21.759         0.997216         -21.759        0.0211209        -157.481
0.7526                 0.0293217        -81.6897         0.997194        -21.9133         0.997194        -21.9133        0.0212452        -157.459
0.7579                 0.0294584        -81.9016         0.997172        -22.0676         0.997172        -22.0676        0.0213698         -157.44
0.7632                 0.0295951        -82.1123         0.997149        -22.2219         0.997149        -22.2219        0.0214947        -157.423
0.7685                 0.0297319        -82.3217         0.997127        -22.3763         0.997127        -22.3763        0.0216199         -157.41
0.7738                 0.0298687        -82.5299         0.997104        -22.5306         0.997104        -22.5306        0.0217453        -157.399
0.7791                 0.0300055         -82.737         0.997082        -22.6849         0.997082        -22.6849         0.021871        -157.391
0.7844                 0.0301424        -82.9429          0.99706        -22.8392          0.99706        -22.8392        0.0219969        -157.385
0.7897                 0.0302793        -83.1476         0.997037        -22.9935         0.997037        -22.9935         0.022123        -157.382
0.795                  0.0304162        -83.3512         0.997014        -23.1478         0.997014        -23.1478        0.0222494        -157.382
0.8003                 0.0305531        -83.5537         0.996992        -23.3021         0.996992        -23.3021         0.022376        -157.385
0.8056                   0.03069         -83.755         0.996969        -23.4564         0.996969        -23.4564        0.0225029        -157.389
0.8109                 0.0308269        -83.9553         0.996946        -23.6107         0.996946        -23.6107        0.0226299        -157.397
0.8162                 0.0309639        -84.1545         0.996924         -23.765         0.996924         -23.765        0.0227572        -157.407
0.8215                 0.0311008        -84.3526         0.996901        -23.9193         0.996901        -23.9193        0.0228847        -157.419
0.8268                 0.0312378        -84.5497         0.996878        -24.0736         0.996878        -24.0736        0.0230123        -157.434
0.8321                 0.0313747        -84.7457         0.996855        -24.2279         0.996855        -24.2279        0.0231402        -157.451
0.8374                 0.0315117        -84.9406         0.996832        -24.3822         0.996832        -24.3822        0.0232682         -157.47
0.8427                 0.0316487        -85.1346         0.996809        -24.5365         0.996809        -24.5365        0.0233964        -157.492
0.848                  0.0317856        -85.3276         0.996787        -24.6908         0.996787        -24.6908        0.0235248        -157.515
0.8533                 0.0319226        -85.5195         0.996764        -24.8451         0.996764        -24.8451        0.0236534        -157.542
0.8586                 0.0320595        -85.7105          0.99674        -24.9994          0.99674        -24.9994        0.0237822         -157.57
0.8639                 0.0321964        -85.9005         0.996717        -25.1537         0.996717        -25.1537         0.023911          -157.6
0.8692                 0.0323334        -86.0896         0.996694         -25.308         0.996694         -25.308        0.0240401        -157.633
0.8745                 0.0324703        -86.2777         0.996671        -25.4623         0.996671        -25.4623        0.0241693        -157.667
0.8798                 0.0326072        -86.4648         0.996648        -25.6166         0.996648        -25.6166        0.0242987        -157.704
0.8851                  0.032744        -86.6511         0.996625        -25.7709         0.996625        -25.7709        0.0244281        -157.743
0.8904                 0.0328809        -86.8364         0.996602        -25.9252         0.996602        -25.9252        0.0245578        -157.783
0.8957                 0.0330177        -87.0209         0.996578        -26.0795         0.996578        -26.0795        0.0246875        -157.826
0.901                  0.0331545        -87.2044         0.996555        -26.2338         0.996555        -26.2338        0.0248174        -157.871
0.9063                 0.0332913         -87.387         0.996532        -26.3881         0.996532        -26.3881        0.0249474        -157.917
0.9116                 0.0334281        -87.5688         0.996508        -26.5424         0.996508        -26.5424        0.0250776        -157.966
0.9169                 0.0335648        -87.7498         0.996485        -26.6967         0.996485        -26.6967        0.0252078        -158.016
0.9222                 0.0337015        -87.9298         0.996461         -26.851         0.996461         -26.851        0.0253382        -158.068
0.9275                 0.0338382        -88.1091         0.996438        -27.0053         0.996438        -27.0053        0.0254687        -158.122
0.9328                 0.0339748        -88.2875         0.996414        -27.1596         0.996414        -27.1596        0.0255993        -158.178
0.9381                 0.0341114        -88.4651         0.996391        -27.3138         0.996391        -27.3138        0.0257299        -158.235
0.9434                  0.034248        -88.6418         0.996367        -27.4681         0.996367        -27.4681        0.0258607        -158.294
0.9487                 0.0343845        -88.8178         0.996343        -27.6224         0.996343        -27.6224        0.0259916        -158.355
0.954                   0.034521         -88.993          0.99632        -27.7767          0.99632        -27.7767        0.0261225        -158.418
0.9593                 0.0346574        -89.1674         0.996296         -27.931         0.996296         -27.931        0.0262536        -158.482
0.9646                 0.0347938         -89.341         0.996272        -28.0853         0.996272        -28.0853        0.0263847        -158.548
0.9699                 0.0349302        -89.5138         0.996248        -28.2396         0.996248        -28.2396        0.0265159        -158.615
0.9752                 0.0350665        -89.6859         0.996224        -28.3939         0.996224        -28.3939        0.0266472        -158.684
0.9805                 0.0352028        -89.8572         0.996201        -28.5481         0.996201        -28.5481        0.0267785        -158.755
0.9858                  0.035339        -90.0278         0.996177        -28.7024         0.996177        -28.7024        0.0269099        -158.827
0.9911                 0.0354752        -90.1976         0.996153        -28.8567         0.996153        -28.8567        0.0270414        -158.901
0.9964                 0.0356113        -90.3668         0.996129         -29.011         0.996129         -29.011         0.027173        -158.976