! TOUCHSTONE file generated by CST MICROWAVE STUDIO
! Date and time: Tue Jan  7 09:43:27 2020
! Project name: OSHPark_FR408_Transition2.cst
! Parameters = {GND_Plane_XMax=12; Cap_Disk_XOffset=0; Cap_Disk2_YCenter=-1.03; Cap_Disk_YCenter=1.03; Cap_Disk_XCenter=7.39; Cap_Disk_Radius=0.5; BottomSupport_Left_YMax=4.76; BottomSupport_Left_YMin=3.74; BottomSupport_Right_YMax=-3.74; BottomSupport_Right_YMin=-4.76; BottomSupport_XMax=11.64; BottomSupport_XMin=6.89; BottomSupport_ZMax=-1.64084; BottomSupport_ZMin=-3.58; Cu1_Thickness=0.03556; Cu2_Thickness=0.01778; Fr408Core_Thickness=1.1938; GND_Plane_Offset=2.85; PCBThickness=1.6256; Prepreg1_Zmin=-0.20574; Prepreg_Thickness=0.17018; RFTraceYMax=0.17145; RFTrace_XMax=15; RFTrace_XMin=11.46; RFTrace_YMin=-0.17145; SMA_CenterCond_Inner_XMax=11.64; SMA_CenterCond_Radius=0.6; SMA_Dielectric_InnerRadius=0.6; SMA_Dielectric_OuterRadius=2; SMA_Dielectric_XMax=5.62; SMA_Dielectric_XMin=0; SMA_Dielectric_YCenter=0; SMA_Dielectric_ZCenter=0; SMA_Footprint_Center_XMax=12.49; SMA_Footprint_Center_XMin=7.74; SMA_Footprint_Center_YMax=0.75; SMA_Footprint_Center_YMin=-0.75; SMA_OuterCond_InnerRadius=2; SMA_OuterCond_OuterRadius=3; SMA_OuterCond_XMax=6.89; SMA_XMax=6.67; SMA_XMin=0; SMA_YCenter=0; SMA_ZCenter=0; TopSupport_ZMax=1.02; TopSupport_ZMin=0; Via1_XCenter=7.5; Via1_YCenter=-4.25; Via2_XCenter=8.75; Via2_YCenter=-4.25; Via3_XCenter=10; Via3_YCenter=-4.25; Via4_XCenter=11.25; Via4_YCenter=-4.25; Via5_XCenter=7.5; Via5_YCenter=4.25; Via6_XCenter=8.75; Via6_YCenter=4.25; Via7_XCenter=10; Via7_YCenter=4.25; Via8_XCenter=11.25; Via8_YCenter=4.25; ViaInnerRadius=0; ViaOuterRadius=0.381}
! Header version: 2015
! Port assignment regex: !\s*Touchstone port\s*([0-9]+)\s*=\s*CST MWS port\s*([0-9]+)\s*\(\"(.*)\"\)(\s*mode\s*([0-9]+))?.*
! Touchstone port assignment:
! Touchstone port 1 = CST MWS port 1 ("")
! Touchstone port 2 = CST MWS port 2 ("")
# GHz S MA R 50
0                         1.2607               0         0.270339             180         0.270339             180          1.28016               0
0.0053                 0.0122609        -24.4399         0.999938       -0.158509         0.999938       -0.158509         0.012395         154.277
0.0106                 0.0123136        -25.0337         0.999922       -0.305294         0.999922       -0.305294        0.0123558         154.604
0.0159                 0.0123237        -25.4221         0.999907       -0.455428         0.999907       -0.455428        0.0123242         154.647
0.0212                 0.0123313        -25.7423         0.999892       -0.606398         0.999892       -0.606398        0.0123024         154.636
0.0265                 0.0123405        -26.0291         0.999877       -0.757702         0.999877       -0.757702        0.0122872          154.61
0.0318                 0.0123458        -26.3098         0.999862       -0.909173         0.999862       -0.909173        0.0122706         154.565
0.0371                 0.0123542        -26.5751         0.999847        -1.06074         0.999847        -1.06074        0.0122586         154.522
0.0424                 0.0123727        -26.8118         0.999831        -1.21236         0.999831        -1.21236        0.0122578         154.495
0.0477                 0.0123873        -27.0536         0.999816        -1.36402         0.999816        -1.36402        0.0122536         154.458
0.053                  0.0123983        -27.3013         0.999801        -1.51571         0.999801        -1.51571         0.012246         154.411
0.0583                 0.0124044        -27.5586         0.999786        -1.66743         0.999786        -1.66743        0.0122338         154.354
0.0636                 0.0124121        -27.8107         0.999771        -1.81916         0.999771        -1.81916        0.0122233         154.299
0.0689                 0.0124213        -28.0582         0.999756         -1.9709         0.999756         -1.9709        0.0122145         154.246
0.0742                 0.0124308        -28.3039          0.99974        -2.12264          0.99974        -2.12264        0.0122061         154.193
0.0795                 0.0124401        -28.5494         0.999725         -2.2744         0.999725         -2.2744        0.0121977          154.14
0.0848                 0.0124489        -28.7953          0.99971        -2.42616          0.99971        -2.42616        0.0121888         154.085
0.0901                 0.0124579        -29.0404         0.999695        -2.57793         0.999695        -2.57793        0.0121801          154.03
0.0954                  0.012467        -29.2846         0.999679         -2.7297         0.999679         -2.7297        0.0121716         153.975
0.1007                 0.0124761        -29.5285         0.999664        -2.88147         0.999664        -2.88147        0.0121631          153.92
0.106                  0.0124851        -29.7719         0.999649        -3.03325         0.999649        -3.03325        0.0121546         153.864
0.1113                 0.0124942        -30.0152         0.999633        -3.18503         0.999633        -3.18503        0.0121461         153.809
0.1166                 0.0125033         -30.258         0.999618        -3.33681         0.999618        -3.33681        0.0121376         153.753
0.1219                 0.0125124        -30.5004         0.999603         -3.4886         0.999603         -3.4886        0.0121292         153.697
0.1272                 0.0125216        -30.7425         0.999587        -3.64038         0.999587        -3.64038        0.0121208         153.641
0.1325                 0.0125307        -30.9843         0.999572        -3.79217         0.999572        -3.79217        0.0121124         153.585
0.1378                 0.0125399        -31.2258         0.999556        -3.94396         0.999556        -3.94396         0.012104         153.529
0.1431                 0.0125491         -31.467         0.999541        -4.09575         0.999541        -4.09575        0.0120956         153.473
0.1484                 0.0125584        -31.7078         0.999525        -4.24754         0.999525        -4.24754        0.0120873         153.417
0.1537                 0.0125676        -31.9484          0.99951        -4.39933          0.99951        -4.39933         0.012079          153.36
0.159                  0.0125769        -32.1887         0.999494        -4.55112         0.999494        -4.55112        0.0120707         153.304
0.1643                 0.0125862        -32.4288         0.999478        -4.70291         0.999478        -4.70291        0.0120624         153.248
0.1696                 0.0125956        -32.6685         0.999463        -4.85471         0.999463        -4.85471        0.0120541         153.191
0.1749                 0.0126049         -32.908         0.999447         -5.0065         0.999447         -5.0065        0.0120459         153.135
0.1802                 0.0126143        -33.1472         0.999431         -5.1583         0.999431         -5.1583        0.0120376         153.079
0.1855                 0.0126237        -33.3861         0.999416        -5.31009         0.999416        -5.31009        0.0120294         153.022
0.1908                 0.0126332        -33.6247           0.9994        -5.46189           0.9994        -5.46189        0.0120212         152.966
0.1961                 0.0126427        -33.8631         0.999384        -5.61368         0.999384        -5.61368         0.012013         152.909
0.2014                 0.0126521        -34.1012         0.999369        -5.76548         0.999369        -5.76548        0.0120048         152.853
0.2067                 0.0126617        -34.3391         0.999353        -5.91727         0.999353        -5.91727        0.0119966         152.796
0.212                  0.0126712        -34.5766         0.999337        -6.06907         0.999337        -6.06907        0.0119885          152.74
0.2173                 0.0126808        -34.8139         0.999321        -6.22087         0.999321        -6.22087        0.0119804         152.683
0.2226                 0.0126904        -35.0509         0.999305        -6.37267         0.999305        -6.37267        0.0119722         152.627
0.2279                    0.0127        -35.2876         0.999289        -6.52446         0.999289        -6.52446        0.0119641          152.57
0.2332                 0.0127096        -35.5241         0.999274        -6.67626         0.999274        -6.67626         0.011956         152.514
0.2385                 0.0127193        -35.7603         0.999258        -6.82806         0.999258        -6.82806        0.0119479         152.457
0.2438                  0.012729        -35.9962         0.999242        -6.97986         0.999242        -6.97986        0.0119399           152.4
0.2491                 0.0127387        -36.2318         0.999226        -7.13166         0.999226        -7.13166        0.0119318         152.344
0.2544                 0.0127484        -36.4672          0.99921        -7.28346          0.99921        -7.28346        0.0119238         152.287
0.2597                 0.0127581        -36.7023         0.999194        -7.43525         0.999194        -7.43525        0.0119158          152.23
0.265                  0.0127679        -36.9371         0.999178        -7.58705         0.999178        -7.58705        0.0119077         152.173
0.2703                 0.0127777        -37.1716         0.999162        -7.73885         0.999162        -7.73885        0.0118998         152.117
0.2756                 0.0127875        -37.4058         0.999146        -7.89065         0.999146        -7.89065        0.0118918          152.06
0.2809                 0.0127974        -37.6397         0.999129        -8.04245         0.999129        -8.04245        0.0118838         152.003
0.2862                 0.0128072        -37.8734         0.999113        -8.19425         0.999113        -8.19425        0.0118758         151.946
0.2915                 0.0128171        -38.1068         0.999097        -8.34605         0.999097        -8.34605        0.0118679         151.889
0.2968                  0.012827        -38.3399         0.999081        -8.49785         0.999081        -8.49785          0.01186         151.832
0.3021                 0.0128369        -38.5726         0.999065        -8.64965         0.999065        -8.64965        0.0118521         151.775
0.3074                 0.0128468        -38.8052         0.999049        -8.80145         0.999049        -8.80145        0.0118442         151.718
0.3127                 0.0128567        -39.0374         0.999032        -8.95325         0.999032        -8.95325        0.0118363         151.661
0.318                  0.0128667        -39.2693         0.999016        -9.10505         0.999016        -9.10505        0.0118284         151.604
0.3233                 0.0128767        -39.5009            0.999        -9.25685            0.999        -9.25685        0.0118206         151.547
0.3286                 0.0128867        -39.7322         0.998984        -9.40865         0.998984        -9.40865        0.0118127          151.49
0.3339                 0.0128967        -39.9633         0.998967        -9.56045         0.998967        -9.56045        0.0118049         151.432
0.3392                 0.0129067         -40.194         0.998951        -9.71225         0.998951        -9.71225        0.0117971         151.375
0.3445                 0.0129167        -40.4245         0.998935        -9.86405         0.998935        -9.86405        0.0117893         151.318
0.3498                 0.0129268        -40.6546         0.998918        -10.0159         0.998918        -10.0159        0.0117815          151.26
0.3551                 0.0129369        -40.8844         0.998902        -10.1677         0.998902        -10.1677        0.0117737         151.203
0.3604                 0.0129469        -41.1139         0.998885        -10.3195         0.998885        -10.3195         0.011766         151.145
0.3657                  0.012957        -41.3432         0.998869        -10.4713         0.998869        -10.4713        0.0117582         151.088
0.371                  0.0129671        -41.5721         0.998852        -10.6231         0.998852        -10.6231        0.0117505          151.03
0.3763                 0.0129772        -41.8007         0.998836        -10.7749         0.998836        -10.7749        0.0117428         150.972
0.3816                 0.0129874        -42.0289         0.998819        -10.9267         0.998819        -10.9267        0.0117351         150.914
0.3869                 0.0129975        -42.2569         0.998803        -11.0785         0.998803        -11.0785        0.0117274         150.857
0.3922                 0.0130076        -42.4846         0.998786        -11.2303         0.998786        -11.2303        0.0117197         150.799
0.3975                 0.0130178         -42.712          0.99877        -11.3821          0.99877        -11.3821         0.011712         150.741
0.4028                  0.013028         -42.939         0.998753        -11.5339         0.998753        -11.5339        0.0117044         150.683
0.4081                 0.0130381        -43.1657         0.998736        -11.6857         0.998736        -11.6857        0.0116968         150.624
0.4134                 0.0130483        -43.3921          0.99872        -11.8375          0.99872        -11.8375        0.0116892         150.566
0.4187                 0.0130585        -43.6182         0.998703        -11.9893         0.998703        -11.9893        0.0116816         150.508
0.424                  0.0130687         -43.844         0.998686        -12.1411         0.998686        -12.1411         0.011674          150.45
0.4293                 0.0130789        -44.0694          0.99867        -12.2929          0.99867        -12.2929        0.0116664         150.391
0.4346                 0.0130891        -44.2945         0.998653        -12.4447         0.998653        -12.4447        0.0116589         150.333
0.4399                 0.0130993        -44.5193         0.998636        -12.5965         0.998636        -12.5965        0.0116513         150.274
0.4452                 0.0131095        -44.7438         0.998619        -12.7483         0.998619        -12.7483        0.0116438         150.215
0.4505                 0.0131197         -44.968         0.998602        -12.9001         0.998602        -12.9001        0.0116363         150.156
0.4558                   0.01313        -45.1918         0.998586        -13.0519         0.998586        -13.0519        0.0116288         150.097
0.4611                 0.0131402        -45.4152         0.998569        -13.2037         0.998569        -13.2037        0.0116213         150.038
0.4664                 0.0131504        -45.6384         0.998552        -13.3555         0.998552        -13.3555        0.0116138         149.979
0.4717                 0.0131606        -45.8612         0.998535        -13.5073         0.998535        -13.5073        0.0116063          149.92
0.477                  0.0131709        -46.0838         0.998518        -13.6591         0.998518        -13.6591        0.0115989         149.861
0.4823                 0.0131811        -46.3059         0.998501        -13.8109         0.998501        -13.8109        0.0115915         149.801
0.4876                 0.0131913        -46.5277         0.998484        -13.9627         0.998484        -13.9627        0.0115841         149.742
0.4929                 0.0132016        -46.7492         0.998467        -14.1145         0.998467        -14.1145        0.0115767         149.682
0.4982                 0.0132118        -46.9704          0.99845        -14.2663          0.99845        -14.2663        0.0115693         149.622
0.5035                  0.013222        -47.1912         0.998433        -14.4181         0.998433        -14.4181        0.0115619         149.563
0.5088                 0.0132323        -47.4117         0.998416        -14.5699         0.998416        -14.5699        0.0115545         149.503
0.5141                 0.0132425        -47.6318         0.998399        -14.7217         0.998399        -14.7217        0.0115472         149.443
0.5194                 0.0132527        -47.8516         0.998382        -14.8735         0.998382        -14.8735        0.0115399         149.382
0.5247                  0.013263        -48.0711         0.998365        -15.0253         0.998365        -15.0253        0.0115325         149.322
0.53                   0.0132732        -48.2902         0.998347        -15.1771         0.998347        -15.1771        0.0115252         149.262
0.5353                 0.0132834        -48.5089          0.99833        -15.3289          0.99833        -15.3289        0.0115179         149.201
0.5406                 0.0132936        -48.7273         0.998313        -15.4807         0.998313        -15.4807        0.0115107          149.14
0.5459                 0.0133038        -48.9454         0.998296        -15.6325         0.998296        -15.6325        0.0115034         149.079
0.5512                  0.013314        -49.1632         0.998278        -15.7843         0.998278        -15.7843        0.0114962         149.018
0.5565                 0.0133242        -49.3806         0.998261        -15.9361         0.998261        -15.9361        0.0114889         148.957
0.5618                 0.0133344        -49.5976         0.998244        -16.0879         0.998244        -16.0879        0.0114817         148.896
0.5671                 0.0133446        -49.8142         0.998227        -16.2397         0.998227        -16.2397        0.0114745         148.835
0.5724                 0.0133547        -50.0306         0.998209        -16.3915         0.998209        -16.3915        0.0114673         148.773
0.5777                 0.0133649        -50.2466         0.998192        -16.5433         0.998192        -16.5433        0.0114601         148.711
0.583                   0.013375        -50.4622         0.998175        -16.6951         0.998175        -16.6951        0.0114529         148.649
0.5883                 0.0133852        -50.6775         0.998157        -16.8469         0.998157        -16.8469        0.0114458         148.587
0.5936                 0.0133953        -50.8924          0.99814        -16.9987          0.99814        -16.9987        0.0114387         148.525
0.5989                 0.0134054         -51.107         0.998122        -17.1505         0.998122        -17.1505        0.0114315         148.463
0.6042                 0.0134155        -51.3212         0.998105        -17.3023         0.998105        -17.3023        0.0114244         148.401
0.6095                 0.0134256         -51.535         0.998087        -17.4541         0.998087        -17.4541        0.0114173         148.338
0.6148                 0.0134357        -51.7485          0.99807        -17.6059          0.99807        -17.6059        0.0114102         148.275
0.6201                 0.0134458        -51.9616         0.998052        -17.7577         0.998052        -17.7577        0.0114031         148.212
0.6254                 0.0134558        -52.1744         0.998035        -17.9095         0.998035        -17.9095        0.0113961         148.149
0.6307                 0.0134659        -52.3868         0.998017        -18.0613         0.998017        -18.0613         0.011389         148.086
0.636                  0.0134759        -52.5989         0.997999        -18.2131         0.997999        -18.2131         0.011382         148.022
0.6413                 0.0134859        -52.8106         0.997982        -18.3649         0.997982        -18.3649         0.011375         147.959
0.6466                 0.0134959        -53.0219         0.997964        -18.5167         0.997964        -18.5167         0.011368         147.895
0.6519                 0.0135059        -53.2328         0.997947        -18.6685         0.997947        -18.6685         0.011361         147.831
0.6572                 0.0135159        -53.4435         0.997929        -18.8203         0.997929        -18.8203         0.011354         147.767
0.6625                 0.0135258        -53.6537         0.997911        -18.9721         0.997911        -18.9721         0.011347         147.702
0.6678                 0.0135357        -53.8635         0.997893        -19.1239         0.997893        -19.1239          0.01134         147.638
0.6731                 0.0135456         -54.073         0.997876        -19.2757         0.997876        -19.2757        0.0113331         147.573
0.6784                 0.0135555        -54.2822         0.997858        -19.4275         0.997858        -19.4275        0.0113261         147.508
0.6837                 0.0135654         -54.491          0.99784        -19.5793          0.99784        -19.5793        0.0113192         147.443
0.689                  0.0135752        -54.6994         0.997822        -19.7311         0.997822        -19.7311        0.0113123         147.378
0.6943                 0.0135851        -54.9074         0.997804        -19.8829         0.997804        -19.8829        0.0113054         147.312
0.6996                 0.0135949         -55.115         0.997786        -20.0347         0.997786        -20.0347        0.0112985         147.247
0.7049                 0.0136046        -55.3223         0.997769        -20.1865         0.997769        -20.1865        0.0112916         147.181
0.7102                 0.0136144        -55.5292         0.997751        -20.3383         0.997751        -20.3383        0.0112847         147.115
0.7155                 0.0136241        -55.7358         0.997733        -20.4901         0.997733        -20.4901        0.0112779         147.048
0.7208                 0.0136339        -55.9419         0.997715        -20.6419         0.997715        -20.6419         0.011271         146.982
0.7261                 0.0136436        -56.1477         0.997697        -20.7937         0.997697        -20.7937        0.0112642         146.915
0.7314                 0.0136532        -56.3531         0.997679        -20.9455         0.997679        -20.9455        0.0112574         146.848
0.7367                 0.0136629        -56.5582         0.997661        -21.0973         0.997661        -21.0973        0.0112505         146.781
0.742                  0.0136725        -56.7629         0.997643        -21.2491         0.997643        -21.2491        0.0112437         146.714
0.7473                 0.0136821        -56.9671         0.997625        -21.4009         0.997625        -21.4009        0.0112369         146.646
0.7526                 0.0136916         -57.171         0.997607        -21.5527         0.997607        -21.5527        0.0112302         146.578
0.7579                 0.0137011        -57.3746         0.997588        -21.7045         0.997588        -21.7045        0.0112234          146.51
0.7632                 0.0137106        -57.5778          0.99757        -21.8563          0.99757        -21.8563        0.0112166         146.442
0.7685                 0.0137201        -57.7805         0.997552        -22.0081         0.997552        -22.0081        0.0112099         146.373
0.7738                 0.0137296        -57.9829         0.997534        -22.1599         0.997534        -22.1599        0.0112031         146.305
0.7791                  0.013739        -58.1849         0.997516        -22.3117         0.997516        -22.3117        0.0111964         146.236
0.7844                 0.0137484        -58.3866         0.997497        -22.4635         0.997497        -22.4635        0.0111897         146.166
0.7897                 0.0137577        -58.5878         0.997479        -22.6153         0.997479        -22.6153         0.011183         146.097
0.795                  0.0137671        -58.7887         0.997461        -22.7671         0.997461        -22.7671        0.0111762         146.027
0.8003                 0.0137763        -58.9892         0.997443        -22.9189         0.997443        -22.9189        0.0111696         145.957
0.8056                 0.0137856        -59.1893         0.997424        -23.0707         0.997424        -23.0707        0.0111629         145.887
0.8109                 0.0137948         -59.389         0.997406        -23.2225         0.997406        -23.2225        0.0111562         145.817
0.8162                  0.013804        -59.5884         0.997388        -23.3743         0.997388        -23.3743        0.0111495         145.746
0.8215                 0.0138132        -59.7874         0.997369        -23.5261         0.997369        -23.5261        0.0111429         145.675
0.8268                 0.0138223        -59.9859         0.997351        -23.6779         0.997351        -23.6779        0.0111362         145.604
0.8321                 0.0138314        -60.1841         0.997332        -23.8297         0.997332        -23.8297        0.0111296         145.532
0.8374                 0.0138405        -60.3819         0.997314        -23.9815         0.997314        -23.9815        0.0111229          145.46
0.8427                 0.0138495        -60.5793         0.997296        -24.1333         0.997296        -24.1333        0.0111163         145.388
0.848                  0.0138584        -60.7763         0.997277        -24.2851         0.997277        -24.2851        0.0111097         145.316
0.8533                 0.0138674        -60.9729         0.997259        -24.4369         0.997259        -24.4369        0.0111031         145.244
0.8586                 0.0138763        -61.1692          0.99724        -24.5887          0.99724        -24.5887        0.0110965         145.171
0.8639                 0.0138852         -61.365         0.997222        -24.7405         0.997222        -24.7405        0.0110899         145.098
0.8692                  0.013894        -61.5605         0.997203        -24.8923         0.997203        -24.8923        0.0110833         145.024
0.8745                 0.0139028        -61.7556         0.997184        -25.0441         0.997184        -25.0441        0.0110767         144.951
0.8798                 0.0139115        -61.9503         0.997166        -25.1959         0.997166        -25.1959        0.0110701         144.877
0.8851                 0.0139202        -62.1445         0.997147        -25.3477         0.997147        -25.3477        0.0110636         144.802
0.8904                 0.0139289        -62.3384         0.997128        -25.4995         0.997128        -25.4995         0.011057         144.728
0.8957                 0.0139375         -62.532          0.99711        -25.6513          0.99711        -25.6513        0.0110505         144.653
0.901                  0.0139461        -62.7251         0.997091        -25.8031         0.997091        -25.8031        0.0110439         144.578
0.9063                 0.0139547        -62.9178         0.997072        -25.9549         0.997072        -25.9549        0.0110374         144.503
0.9116                 0.0139632        -63.1101         0.997054        -26.1067         0.997054        -26.1067        0.0110309         144.427
0.9169                 0.0139716        -63.3021         0.997035        -26.2585         0.997035        -26.2585        0.0110243         144.351
0.9222                   0.01398        -63.4936         0.997016        -26.4103         0.997016        -26.4103        0.0110178         144.275
0.9275                 0.0139884        -63.6848         0.996997        -26.5621         0.996997        -26.5621        0.0110113         144.198
0.9328                 0.0139967        -63.8755         0.996978        -26.7139         0.996978        -26.7139        0.0110048         144.121
0.9381                  0.014005        -64.0658          0.99696        -26.8657          0.99696        -26.8657        0.0109983         144.044
0.9434                 0.0140132        -64.2558         0.996941        -27.0175         0.996941        -27.0175        0.0109918         143.966
0.9487                 0.0140214        -64.4454         0.996922        -27.1693         0.996922        -27.1693        0.0109853         143.888
0.954                  0.0140295        -64.6345         0.996903        -27.3211         0.996903        -27.3211        0.0109788          143.81
0.9593                 0.0140376        -64.8233         0.996884        -27.4729         0.996884        -27.4729        0.0109723         143.732
0.9646                 0.0140457        -65.0116         0.996865        -27.6247         0.996865        -27.6247        0.0109659         143.653
0.9699                 0.0140536        -65.1996         0.996846        -27.7765         0.996846        -27.7765        0.0109594         143.574
0.9752                 0.0140616        -65.3871         0.996827        -27.9283         0.996827        -27.9283        0.0109529         143.494
0.9805                 0.0140695        -65.5743         0.996808        -28.0801         0.996808        -28.0801        0.0109464         143.414
0.9858                 0.0140773        -65.7611         0.996789        -28.2319         0.996789        -28.2319          0.01094         143.334
0.9911                 0.0140851        -65.9474          0.99677        -28.3837          0.99677        -28.3837        0.0109335         143.254
0.9964                 0.0140928        -66.1334         0.996751        -28.5355         0.996751        -28.5355        0.0109271         143.173