! TOUCHSTONE file generated by CST MICROWAVE STUDIO
! Date and time: Tue Jan  7 09:43:18 2020
! Project name: OSHPark_FR408_Transition2.cst
! Parameters = {GND_Plane_XMax=12.25; Cap_Disk_XOffset=0; Cap_Disk2_YCenter=-1.03; Cap_Disk_YCenter=1.03; Cap_Disk_XCenter=7.39; Cap_Disk_Radius=0.5; BottomSupport_Left_YMax=4.76; BottomSupport_Left_YMin=3.74; BottomSupport_Right_YMax=-3.74; BottomSupport_Right_YMin=-4.76; BottomSupport_XMax=11.64; BottomSupport_XMin=6.89; BottomSupport_ZMax=-1.64084; BottomSupport_ZMin=-3.58; Cu1_Thickness=0.03556; Cu2_Thickness=0.01778; Fr408Core_Thickness=1.1938; GND_Plane_Offset=2.825; PCBThickness=1.6256; Prepreg1_Zmin=-0.20574; Prepreg_Thickness=0.17018; RFTraceYMax=0.17145; RFTrace_XMax=15; RFTrace_XMin=11.46; RFTrace_YMin=-0.17145; SMA_CenterCond_Inner_XMax=11.64; SMA_CenterCond_Radius=0.6; SMA_Dielectric_InnerRadius=0.6; SMA_Dielectric_OuterRadius=2; SMA_Dielectric_XMax=5.62; SMA_Dielectric_XMin=0; SMA_Dielectric_YCenter=0; SMA_Dielectric_ZCenter=0; SMA_Footprint_Center_XMax=12.49; SMA_Footprint_Center_XMin=7.74; SMA_Footprint_Center_YMax=0.75; SMA_Footprint_Center_YMin=-0.75; SMA_OuterCond_InnerRadius=2; SMA_OuterCond_OuterRadius=3; SMA_OuterCond_XMax=6.89; SMA_XMax=6.67; SMA_XMin=0; SMA_YCenter=0; SMA_ZCenter=0; TopSupport_ZMax=1.02; TopSupport_ZMin=0; Via1_XCenter=7.5; Via1_YCenter=-4.25; Via2_XCenter=8.75; Via2_YCenter=-4.25; Via3_XCenter=10; Via3_YCenter=-4.25; Via4_XCenter=11.25; Via4_YCenter=-4.25; Via5_XCenter=7.5; Via5_YCenter=4.25; Via6_XCenter=8.75; Via6_YCenter=4.25; Via7_XCenter=10; Via7_YCenter=4.25; Via8_XCenter=11.25; Via8_YCenter=4.25; ViaInnerRadius=0; ViaOuterRadius=0.381}
! Header version: 2015
! Port assignment regex: !\s*Touchstone port\s*([0-9]+)\s*=\s*CST MWS port\s*([0-9]+)\s*\(\"(.*)\"\)(\s*mode\s*([0-9]+))?.*
! Touchstone port assignment:
! Touchstone port 1 = CST MWS port 1 ("")
! Touchstone port 2 = CST MWS port 2 ("")
# GHz S MA R 50
0                      0.0893887               0         0.915917               0         0.915917               0        0.0787727               0
0.0053                0.00850847        -34.9161         0.999976       -0.159921         0.999976       -0.159921       0.00879486         142.523
0.0106                0.00852802        -35.2477          0.99996       -0.306167          0.99996       -0.306167       0.00877387         142.548
0.0159                0.00851159        -35.2462         0.999946       -0.455906         0.999946       -0.455906       0.00878947         142.258
0.0212                0.00848637        -35.1614         0.999931       -0.606517         0.999931       -0.606517       0.00881439         141.888
0.0265                0.00845774        -35.0419         0.999916       -0.757478         0.999916       -0.757478       0.00884311         141.488
0.0318                0.00842738        -34.9038         0.999901       -0.908614         0.999901       -0.908614       0.00887368         141.073
0.0371                0.00839632        -34.7556         0.999887        -1.05985         0.999887        -1.05985       0.00890556          140.65
0.0424                0.00836513        -34.6018         0.999872        -1.21115         0.999872        -1.21115       0.00893856         140.221
0.0477                0.00833362        -34.4423         0.999857        -1.36249         0.999857        -1.36249       0.00897205         139.789
0.053                 0.00830192        -34.2782         0.999843        -1.51385         0.999843        -1.51385       0.00900589         139.355
0.0583                0.00827006        -34.1096         0.999828        -1.66524         0.999828        -1.66524       0.00903993         138.922
0.0636                0.00823821        -33.9373         0.999813        -1.81665         0.999813        -1.81665       0.00907424         138.489
0.0689                0.00820642        -33.7619         0.999798        -1.96807         0.999798        -1.96807       0.00910879         138.056
0.0742                0.00817469        -33.5835         0.999783        -2.11949         0.999783        -2.11949       0.00914352         137.624
0.0795                0.00814304        -33.4021         0.999769        -2.27093         0.999769        -2.27093       0.00917841         137.193
0.0848                 0.0081115         -33.218         0.999754        -2.42237         0.999754        -2.42237       0.00921346         136.762
0.0901                0.00808007        -33.0312         0.999739        -2.57382         0.999739        -2.57382       0.00924863         136.333
0.0954                0.00804876        -32.8419         0.999724        -2.72527         0.999724        -2.72527       0.00928393         135.904
0.1007                0.00801759          -32.65         0.999709        -2.87672         0.999709        -2.87672       0.00931934         135.477
0.106                 0.00798656        -32.4556         0.999694        -3.02818         0.999694        -3.02818       0.00935487         135.051
0.1113                0.00795569        -32.2587         0.999679        -3.17964         0.999679        -3.17964       0.00939051         134.625
0.1166                0.00792498        -32.0592         0.999664         -3.3311         0.999664         -3.3311       0.00942624         134.202
0.1219                0.00789442        -31.8574         0.999649        -3.48257         0.999649        -3.48257       0.00946207         133.779
0.1272                0.00786402         -31.653         0.999633        -3.63403         0.999633        -3.63403       0.00949799         133.357
0.1325                0.00783379        -31.4462         0.999618         -3.7855         0.999618         -3.7855         0.009534         132.937
0.1378                0.00780376        -31.2369         0.999603        -3.93697         0.999603        -3.93697       0.00957011         132.517
0.1431                0.00777389        -31.0252         0.999588        -4.08844         0.999588        -4.08844        0.0096063         132.099
0.1484                 0.0077442        -30.8109         0.999573        -4.23991         0.999573        -4.23991       0.00964257         131.683
0.1537                 0.0077147        -30.5943         0.999557        -4.39138         0.999557        -4.39138       0.00967892         131.267
0.159                 0.00768539        -30.3751         0.999542        -4.54286         0.999542        -4.54286       0.00971534         130.852
0.1643                0.00765628        -30.1534         0.999527        -4.69433         0.999527        -4.69433       0.00975186         130.439
0.1696                0.00762737        -29.9292         0.999511        -4.84581         0.999511        -4.84581       0.00978846         130.027
0.1749                0.00759864        -29.7025         0.999496        -4.99728         0.999496        -4.99728       0.00982512         129.616
0.1802                0.00757012        -29.4733         0.999481        -5.14876         0.999481        -5.14876       0.00986185         129.206
0.1855                0.00754181        -29.2416         0.999465        -5.30024         0.999465        -5.30024       0.00989866         128.798
0.1908                0.00751372        -29.0073          0.99945        -5.45171          0.99945        -5.45171       0.00993555          128.39
0.1961                0.00748584        -28.7704         0.999434        -5.60319         0.999434        -5.60319       0.00997251         127.984
0.2014                0.00745816        -28.5311         0.999419        -5.75467         0.999419        -5.75467        0.0100095         127.579
0.2067                0.00743071        -28.2891         0.999403        -5.90615         0.999403        -5.90615        0.0100466         127.175
0.212                 0.00740347        -28.0446         0.999388        -6.05763         0.999388        -6.05763        0.0100838         126.771
0.2173                0.00737648        -27.7975         0.999372        -6.20911         0.999372        -6.20911         0.010121          126.37
0.2226                0.00734971        -27.5478         0.999356        -6.36059         0.999356        -6.36059        0.0101583         125.969
0.2279                0.00732316        -27.2955         0.999341        -6.51207         0.999341        -6.51207        0.0101957         125.569
0.2332                0.00729685        -27.0406         0.999325        -6.66355         0.999325        -6.66355        0.0102331          125.17
0.2385                0.00727077        -26.7831         0.999309        -6.81503         0.999309        -6.81503        0.0102706         124.773
0.2438                0.00724495        -26.5229         0.999294        -6.96651         0.999294        -6.96651        0.0103082         124.376
0.2491                0.00721937        -26.2601         0.999278        -7.11799         0.999278        -7.11799        0.0103459          123.98
0.2544                0.00719403        -25.9947         0.999262        -7.26947         0.999262        -7.26947        0.0103835         123.586
0.2597                0.00716895        -25.7266         0.999246        -7.42095         0.999246        -7.42095        0.0104213         123.192
0.265                 0.00714411        -25.4559          0.99923        -7.57243          0.99923        -7.57243        0.0104591           122.8
0.2703                0.00711955        -25.1825         0.999215        -7.72392         0.999215        -7.72392         0.010497         122.408
0.2756                0.00709525        -24.9065         0.999199         -7.8754         0.999199         -7.8754         0.010535         122.018
0.2809                 0.0070712        -24.6278         0.999183        -8.02688         0.999183        -8.02688         0.010573         121.628
0.2862                0.00704742        -24.3465         0.999167        -8.17836         0.999167        -8.17836         0.010611          121.24
0.2915                0.00702391        -24.0625         0.999151        -8.32985         0.999151        -8.32985        0.0106492         120.852
0.2968                0.00700069        -23.7758         0.999135        -8.48133         0.999135        -8.48133        0.0106874         120.465
0.3021                0.00697774        -23.4864         0.999119        -8.63281         0.999119        -8.63281        0.0107256         120.079
0.3074                0.00695507        -23.1944         0.999103         -8.7843         0.999103         -8.7843        0.0107639         119.695
0.3127                0.00693268        -22.8997         0.999087        -8.93578         0.999087        -8.93578        0.0108023         119.311
0.318                 0.00691058        -22.6024          0.99907        -9.08726          0.99907        -9.08726        0.0108407         118.928
0.3233                0.00688878        -22.3024         0.999054        -9.23875         0.999054        -9.23875        0.0108792         118.546
0.3286                0.00686728        -21.9997         0.999038        -9.39023         0.999038        -9.39023        0.0109178         118.165
0.3339                0.00684607        -21.6944         0.999022        -9.54172         0.999022        -9.54172        0.0109564         117.784
0.3392                0.00682516        -21.3865         0.999006         -9.6932         0.999006         -9.6932        0.0109951         117.405
0.3445                0.00680456        -21.0759         0.998989        -9.84468         0.998989        -9.84468        0.0110338         117.026
0.3498                0.00678428        -20.7627         0.998973        -9.99617         0.998973        -9.99617        0.0110726         116.649
0.3551                0.00676431        -20.4468         0.998957        -10.1477         0.998957        -10.1477        0.0111114         116.272
0.3604                0.00674465        -20.1284          0.99894        -10.2991          0.99894        -10.2991        0.0111503         115.896
0.3657                0.00672531        -19.8074         0.998924        -10.4506         0.998924        -10.4506        0.0111893         115.521
0.371                  0.0067063        -19.4838         0.998908        -10.6021         0.998908        -10.6021        0.0112283         115.146
0.3763                0.00668763        -19.1576         0.998891        -10.7536         0.998891        -10.7536        0.0112674         114.773
0.3816                0.00666928        -18.8288         0.998875        -10.9051         0.998875        -10.9051        0.0113065           114.4
0.3869                0.00665126        -18.4975         0.998858        -11.0566         0.998858        -11.0566        0.0113457         114.028
0.3922                0.00663358        -18.1638         0.998842         -11.208         0.998842         -11.208        0.0113849         113.657
0.3975                0.00661624        -17.8275         0.998825        -11.3595         0.998825        -11.3595        0.0114242         113.287
0.4028                0.00659927        -17.4887         0.998809         -11.511         0.998809         -11.511        0.0114636         112.917
0.4081                0.00658263        -17.1475         0.998792        -11.6625         0.998792        -11.6625         0.011503         112.549
0.4134                0.00656635        -16.8038         0.998775         -11.814         0.998775         -11.814        0.0115424         112.181
0.4187                0.00655042        -16.4578         0.998759        -11.9655         0.998759        -11.9655         0.011582         111.813
0.424                 0.00653485        -16.1094         0.998742         -12.117         0.998742         -12.117        0.0116215         111.447
0.4293                0.00651966        -15.7585         0.998725        -12.2684         0.998725        -12.2684        0.0116612         111.081
0.4346                0.00650483        -15.4054         0.998709        -12.4199         0.998709        -12.4199        0.0117009         110.716
0.4399                0.00649036          -15.05         0.998692        -12.5714         0.998692        -12.5714        0.0117406         110.352
0.4452                0.00647627        -14.6923         0.998675        -12.7229         0.998675        -12.7229        0.0117804         109.988
0.4505                0.00646256        -14.3324         0.998658        -12.8744         0.998658        -12.8744        0.0118203         109.626
0.4558                0.00644924        -13.9703         0.998641        -13.0259         0.998641        -13.0259        0.0118602         109.264
0.4611                 0.0064363        -13.6061         0.998625        -13.1774         0.998625        -13.1774        0.0119001         108.902
0.4664                0.00642375        -13.2397         0.998608        -13.3288         0.998608        -13.3288        0.0119402         108.542
0.4717                0.00641158        -12.8712         0.998591        -13.4803         0.998591        -13.4803        0.0119802         108.182
0.477                 0.00639981        -12.5007         0.998574        -13.6318         0.998574        -13.6318        0.0120204         107.822
0.4823                0.00638845        -12.1282         0.998557        -13.7833         0.998557        -13.7833        0.0120606         107.464
0.4876                0.00637749        -11.7537          0.99854        -13.9348          0.99854        -13.9348        0.0121008         107.106
0.4929                0.00636693        -11.3774         0.998523        -14.0863         0.998523        -14.0863        0.0121411         106.749
0.4982                0.00635677        -10.9991         0.998506        -14.2378         0.998506        -14.2378        0.0121815         106.392
0.5035                0.00634702        -10.6191         0.998488        -14.3893         0.998488        -14.3893        0.0122219         106.036
0.5088                0.00633771        -10.2372         0.998471        -14.5407         0.998471        -14.5407        0.0122624         105.681
0.5141                 0.0063288        -9.85369         0.998454        -14.6922         0.998454        -14.6922        0.0123029         105.326
0.5194                0.00632031        -9.46847         0.998437        -14.8437         0.998437        -14.8437        0.0123435         104.972
0.5247                0.00631224        -9.08164          0.99842        -14.9952          0.99842        -14.9952        0.0123841         104.619
0.53                   0.0063046        -8.69326         0.998403        -15.1467         0.998403        -15.1467        0.0124248         104.266
0.5353                 0.0062974        -8.30336         0.998385        -15.2982         0.998385        -15.2982        0.0124655         103.914
0.5406                0.00629062        -7.91201         0.998368        -15.4497         0.998368        -15.4497        0.0125063         103.563
0.5459                0.00628427        -7.51928         0.998351        -15.6012         0.998351        -15.6012        0.0125472         103.212
0.5512                0.00627836        -7.12522         0.998333        -15.7526         0.998333        -15.7526        0.0125881         102.861
0.5565                0.00627289        -6.72989         0.998316        -15.9041         0.998316        -15.9041        0.0126291         102.512
0.5618                0.00626787        -6.33334         0.998298        -16.0556         0.998298        -16.0556        0.0126701         102.163
0.5671                 0.0062633        -5.93565         0.998281        -16.2071         0.998281        -16.2071        0.0127112         101.814
0.5724                0.00625916        -5.53688         0.998264        -16.3586         0.998264        -16.3586        0.0127523         101.466
0.5777                0.00625547        -5.13709         0.998246        -16.5101         0.998246        -16.5101        0.0127935         101.119
0.583                 0.00625223        -4.73635         0.998229        -16.6616         0.998229        -16.6616        0.0128348         100.772
0.5883                0.00624945        -4.33472         0.998211        -16.8131         0.998211        -16.8131        0.0128761         100.426
0.5936                0.00624713        -3.93227         0.998193        -16.9645         0.998193        -16.9645        0.0129175         100.081
0.5989                0.00624526        -3.52907         0.998176         -17.116         0.998176         -17.116        0.0129589         99.7359
0.6042                0.00624384        -3.12519         0.998158        -17.2675         0.998158        -17.2675        0.0130003         99.3915
0.6095                0.00624289        -2.72069         0.998141         -17.419         0.998141         -17.419        0.0130419         99.0476
0.6148                0.00624241        -2.31566         0.998123        -17.5705         0.998123        -17.5705        0.0130835         98.7044
0.6201                0.00624239        -1.91015         0.998105         -17.722         0.998105         -17.722        0.0131251         98.3617
0.6254                0.00624282        -1.50424         0.998087        -17.8735         0.998087        -17.8735        0.0131668         98.0194
0.6307                0.00624373          -1.098          0.99807         -18.025          0.99807         -18.025        0.0132086         97.6778
0.636                  0.0062451       -0.691494         0.998052        -18.1764         0.998052        -18.1764        0.0132504         97.3367
0.6413                0.00624695       -0.284813         0.998034        -18.3279         0.998034        -18.3279        0.0132923         96.9961
0.6466                0.00624927        0.121982         0.998016        -18.4794         0.998016        -18.4794        0.0133343         96.6561
0.6519                0.00625205        0.528822         0.997998        -18.6309         0.997998        -18.6309        0.0133763         96.3165
0.6572                 0.0062553        0.935631          0.99798        -18.7824          0.99798        -18.7824        0.0134183         95.9775
0.6625                0.00625903         1.34234         0.997962        -18.9339         0.997962        -18.9339        0.0134604          95.639
0.6678                0.00626324         1.74885         0.997944        -19.0854         0.997944        -19.0854        0.0135026         95.3011
0.6731                0.00626792         2.15512         0.997926        -19.2369         0.997926        -19.2369        0.0135448         94.9636
0.6784                0.00627306         2.56107         0.997908        -19.3884         0.997908        -19.3884        0.0135871         94.6267
0.6837                0.00627868         2.96663          0.99789        -19.5398          0.99789        -19.5398        0.0136295         94.2902
0.689                 0.00628478         3.37173         0.997872        -19.6913         0.997872        -19.6913        0.0136719         93.9542
0.6943                0.00629137         3.77626         0.997854        -19.8428         0.997854        -19.8428        0.0137143         93.6188
0.6996                0.00629842         4.18019         0.997836        -19.9943         0.997836        -19.9943        0.0137569         93.2839
0.7049                0.00630595         4.58345         0.997818        -20.1458         0.997818        -20.1458        0.0137995         92.9494
0.7102                0.00631395         4.98595         0.997799        -20.2973         0.997799        -20.2973        0.0138421         92.6154
0.7155                0.00632242         5.38764         0.997781        -20.4488         0.997781        -20.4488        0.0138848         92.2819
0.7208                0.00633138         5.78841         0.997763        -20.6003         0.997763        -20.6003        0.0139276         91.9489
0.7261                0.00634082         6.18823         0.997745        -20.7518         0.997745        -20.7518        0.0139704         91.6163
0.7314                0.00635071         6.58703         0.997726        -20.9032         0.997726        -20.9032        0.0140133         91.2843
0.7367                0.00636109         6.98474         0.997708        -21.0547         0.997708        -21.0547        0.0140562         90.9526
0.742                 0.00637193         7.38128          0.99769        -21.2062          0.99769        -21.2062        0.0140992         90.6215
0.7473                0.00638326         7.77658         0.997671        -21.3577         0.997671        -21.3577        0.0141423         90.2908
0.7526                0.00639506         8.17059         0.997653        -21.5092         0.997653        -21.5092        0.0141854         89.9607
0.7579                0.00640731         8.56325         0.997634        -21.6607         0.997634        -21.6607        0.0142286         89.6309
0.7632                0.00642004         8.95451         0.997616        -21.8122         0.997616        -21.8122        0.0142719         89.3016
0.7685                0.00643324         9.34428         0.997597        -21.9637         0.997597        -21.9637        0.0143152         88.9727
0.7738                0.00644691         9.73249         0.997579        -22.1152         0.997579        -22.1152        0.0143586         88.6444
0.7791                0.00646105         10.1191          0.99756        -22.2667          0.99756        -22.2667         0.014402         88.3164
0.7844                0.00647565         10.5041         0.997542        -22.4181         0.997542        -22.4181        0.0144455         87.9889
0.7897                0.00649071         10.8873         0.997523        -22.5696         0.997523        -22.5696        0.0144891         87.6618
0.795                 0.00650623         11.2688         0.997504        -22.7211         0.997504        -22.7211        0.0145327         87.3352
0.8003                0.00652222         11.6485         0.997486        -22.8726         0.997486        -22.8726        0.0145764          87.009
0.8056                0.00653866         12.0263         0.997467        -23.0241         0.997467        -23.0241        0.0146201         86.6833
0.8109                0.00655556         12.4021         0.997448        -23.1756         0.997448        -23.1756         0.014664          86.358
0.8162                0.00657291          12.776          0.99743        -23.3271          0.99743        -23.3271        0.0147078         86.0331
0.8215                0.00659071         13.1479         0.997411        -23.4786         0.997411        -23.4786        0.0147518         85.7086
0.8268                0.00660898         13.5176         0.997392        -23.6301         0.997392        -23.6301        0.0147958         85.3846
0.8321                0.00662769         13.8853         0.997373        -23.7815         0.997373        -23.7815        0.0148399          85.061
0.8374                0.00664684         14.2508         0.997354         -23.933         0.997354         -23.933         0.014884         84.7377
0.8427                0.00666644         14.6141         0.997335        -24.0845         0.997335        -24.0845        0.0149282         84.4149
0.848                 0.00668648         14.9751         0.997316         -24.236         0.997316         -24.236        0.0149724         84.0926
0.8533                0.00670697         15.3339         0.997297        -24.3875         0.997297        -24.3875        0.0150168         83.7706
0.8586                 0.0067279         15.6903         0.997278         -24.539         0.997278         -24.539        0.0150612         83.4491
0.8639                0.00674925         16.0443         0.997259        -24.6905         0.997259        -24.6905        0.0151056         83.1279
0.8692                0.00677104          16.396          0.99724         -24.842          0.99724         -24.842        0.0151502         82.8072
0.8745                0.00679327         16.7452         0.997221        -24.9935         0.997221        -24.9935        0.0151947         82.4868
0.8798                0.00681593          17.092         0.997202         -25.145         0.997202         -25.145        0.0152394         82.1669
0.8851                0.00683902         17.4362         0.997183        -25.2965         0.997183        -25.2965        0.0152841         81.8474
0.8904                0.00686252         17.7779         0.997164        -25.4479         0.997164        -25.4479        0.0153289         81.5282
0.8957                0.00688644         18.1171         0.997145        -25.5994         0.997145        -25.5994        0.0153738         81.2095
0.901                 0.00691079         18.4537         0.997126        -25.7509         0.997126        -25.7509        0.0154187         80.8911
0.9063                0.00693556         18.7876         0.997106        -25.9024         0.997106        -25.9024        0.0154637         80.5732
0.9116                0.00696074         19.1189         0.997087        -26.0539         0.997087        -26.0539        0.0155087         80.2556
0.9169                0.00698633         19.4476         0.997068        -26.2054         0.997068        -26.2054        0.0155538         79.9384
0.9222                0.00701232         19.7736         0.997048        -26.3569         0.997048        -26.3569         0.015599         79.6216
0.9275                0.00703872         20.0969         0.997029        -26.5084         0.997029        -26.5084        0.0156443         79.3052
0.9328                0.00706554         20.4174          0.99701        -26.6599          0.99701        -26.6599        0.0156896         78.9892
0.9381                0.00709275         20.7352          0.99699        -26.8114          0.99699        -26.8114         0.015735         78.6735
0.9434                0.00712036         21.0503         0.996971        -26.9629         0.996971        -26.9629        0.0157805         78.3582
0.9487                0.00714836         21.3626         0.996951        -27.1143         0.996951        -27.1143         0.015826         78.0433
0.954                 0.00717674         21.6721         0.996932        -27.2658         0.996932        -27.2658        0.0158716         77.7288
0.9593                0.00720554         21.9788         0.996912        -27.4173         0.996912        -27.4173        0.0159173         77.4146
0.9646                0.00723471         22.2827         0.996893        -27.5688         0.996893        -27.5688         0.015963         77.1009
0.9699                0.00726426         22.5838         0.996873        -27.7203         0.996873        -27.7203        0.0160088         76.7875
0.9752                0.00729419         22.8821         0.996854        -27.8718         0.996854        -27.8718        0.0160547         76.4744
0.9805                 0.0073245         23.1775         0.996834        -28.0233         0.996834        -28.0233        0.0161006         76.1617
0.9858                 0.0073552         23.4701         0.996814        -28.1748         0.996814        -28.1748        0.0161466         75.8494
0.9911                0.00738626         23.7598         0.996795        -28.3263         0.996795        -28.3263        0.0161927         75.5375
0.9964                0.00741769         24.0467         0.996775        -28.4778         0.996775        -28.4778        0.0162389         75.2259