! TOUCHSTONE file generated by CST MICROWAVE STUDIO
! Date and time: Tue Jan  7 09:43:28 2020
! Project name: OSHPark_FR408_Transition2.cst
! Parameters = {GND_Plane_XMax=12.25; Cap_Disk_XOffset=0; Cap_Disk2_YCenter=-1.03; Cap_Disk_YCenter=1.03; Cap_Disk_XCenter=7.39; Cap_Disk_Radius=0.5; BottomSupport_Left_YMax=4.76; BottomSupport_Left_YMin=3.74; BottomSupport_Right_YMax=-3.74; BottomSupport_Right_YMin=-4.76; BottomSupport_XMax=11.64; BottomSupport_XMin=6.89; BottomSupport_ZMax=-1.64084; BottomSupport_ZMin=-3.58; Cu1_Thickness=0.03556; Cu2_Thickness=0.01778; Fr408Core_Thickness=1.1938; GND_Plane_Offset=2.85; PCBThickness=1.6256; Prepreg1_Zmin=-0.20574; Prepreg_Thickness=0.17018; RFTraceYMax=0.17145; RFTrace_XMax=15; RFTrace_XMin=11.46; RFTrace_YMin=-0.17145; SMA_CenterCond_Inner_XMax=11.64; SMA_CenterCond_Radius=0.6; SMA_Dielectric_InnerRadius=0.6; SMA_Dielectric_OuterRadius=2; SMA_Dielectric_XMax=5.62; SMA_Dielectric_XMin=0; SMA_Dielectric_YCenter=0; SMA_Dielectric_ZCenter=0; SMA_Footprint_Center_XMax=12.49; SMA_Footprint_Center_XMin=7.74; SMA_Footprint_Center_YMax=0.75; SMA_Footprint_Center_YMin=-0.75; SMA_OuterCond_InnerRadius=2; SMA_OuterCond_OuterRadius=3; SMA_OuterCond_XMax=6.89; SMA_XMax=6.67; SMA_XMin=0; SMA_YCenter=0; SMA_ZCenter=0; TopSupport_ZMax=1.02; TopSupport_ZMin=0; Via1_XCenter=7.5; Via1_YCenter=-4.25; Via2_XCenter=8.75; Via2_YCenter=-4.25; Via3_XCenter=10; Via3_YCenter=-4.25; Via4_XCenter=11.25; Via4_YCenter=-4.25; Via5_XCenter=7.5; Via5_YCenter=4.25; Via6_XCenter=8.75; Via6_YCenter=4.25; Via7_XCenter=10; Via7_YCenter=4.25; Via8_XCenter=11.25; Via8_YCenter=4.25; ViaInnerRadius=0; ViaOuterRadius=0.381}
! Header version: 2015
! Port assignment regex: !\s*Touchstone port\s*([0-9]+)\s*=\s*CST MWS port\s*([0-9]+)\s*\(\"(.*)\"\)(\s*mode\s*([0-9]+))?.*
! Touchstone port assignment:
! Touchstone port 1 = CST MWS port 1 ("")
! Touchstone port 2 = CST MWS port 2 ("")
# GHz S MA R 50
0                      0.0817582               0         0.927502               0         0.927502               0        0.0631708               0
0.0053                 0.0122294        -24.2728         0.999938       -0.158197         0.999938       -0.158197        0.0124025         154.037
0.0106                 0.0122496        -24.6906         0.999923       -0.304699         0.999923       -0.304699        0.0123704         154.132
0.0159                 0.0122567        -24.8355         0.999908       -0.454535         0.999908       -0.454535        0.0123751         154.011
0.0212                 0.0122552        -24.9245         0.999893       -0.605207         0.999893       -0.605207        0.0123839         153.822
0.0265                 0.0122486        -24.9949         0.999879       -0.756213         0.999879       -0.756213        0.0123924         153.603
0.0318                 0.0122423        -25.0489         0.999864       -0.907386         0.999864       -0.907386        0.0124037         153.376
0.0371                 0.0122329        -25.1026         0.999849        -1.05866         0.999849        -1.05866        0.0124134         153.135
0.0424                 0.0122163        -25.1696         0.999834        -1.20999         0.999834        -1.20999        0.0124168         152.872
0.0477                 0.0122018        -25.2287          0.99982        -1.36136          0.99982        -1.36136        0.0124227         152.611
0.053                  0.0121892        -25.2807         0.999805        -1.51276         0.999805        -1.51276         0.012431         152.353
0.0583                 0.0121795        -25.3236          0.99979        -1.66417          0.99979        -1.66417        0.0124425           152.1
0.0636                 0.0121685         -25.368         0.999775         -1.8156         0.999775         -1.8156        0.0124528         151.844
0.0689                 0.0121564        -25.4139         0.999761        -1.96705         0.999761        -1.96705        0.0124621         151.585
0.0742                 0.0121439        -25.4596         0.999746         -2.1185         0.999746         -2.1185        0.0124711         151.324
0.0795                 0.0121313        -25.5046         0.999731        -2.26996         0.999731        -2.26996        0.0124801         151.062
0.0848                 0.0121189        -25.5484         0.999716        -2.42143         0.999716        -2.42143        0.0124894         150.801
0.0901                 0.0121063         -25.592         0.999701         -2.5729         0.999701         -2.5729        0.0124985         150.539
0.0954                 0.0120935        -25.6356         0.999686        -2.72437         0.999686        -2.72437        0.0125075         150.276
0.1007                 0.0120806        -25.6788         0.999671        -2.87585         0.999671        -2.87585        0.0125163         150.013
0.106                  0.0120676        -25.7218         0.999656        -3.02733         0.999656        -3.02733        0.0125251          149.75
0.1113                 0.0120546        -25.7645         0.999641        -3.17882         0.999641        -3.17882        0.0125339         149.486
0.1166                 0.0120415         -25.807         0.999626        -3.33031         0.999626        -3.33031        0.0125426         149.222
0.1219                 0.0120282        -25.8494         0.999611        -3.48179         0.999611        -3.48179        0.0125511         148.957
0.1272                 0.0120149        -25.8917         0.999596        -3.63328         0.999596        -3.63328        0.0125596         148.692
0.1325                 0.0120014        -25.9338         0.999581        -3.78478         0.999581        -3.78478        0.0125679         148.427
0.1378                 0.0119879        -25.9757         0.999566        -3.93627         0.999566        -3.93627        0.0125762         148.161
0.1431                 0.0119743        -26.0175         0.999551        -4.08776         0.999551        -4.08776        0.0125844         147.895
0.1484                 0.0119606        -26.0592         0.999536        -4.23926         0.999536        -4.23926        0.0125924         147.629
0.1537                 0.0119468        -26.1008         0.999521        -4.39076         0.999521        -4.39076        0.0126004         147.363
0.159                  0.0119329        -26.1423         0.999505        -4.54225         0.999505        -4.54225        0.0126082         147.096
0.1643                 0.0119189        -26.1836          0.99949        -4.69375          0.99949        -4.69375         0.012616         146.829
0.1696                 0.0119048        -26.2248         0.999475        -4.84525         0.999475        -4.84525        0.0126237         146.562
0.1749                 0.0118907        -26.2659          0.99946        -4.99675          0.99946        -4.99675        0.0126312         146.294
0.1802                 0.0118764        -26.3069         0.999444        -5.14825         0.999444        -5.14825        0.0126387         146.026
0.1855                 0.0118621        -26.3477         0.999429        -5.29975         0.999429        -5.29975        0.0126461         145.758
0.1908                 0.0118477        -26.3884         0.999414        -5.45125         0.999414        -5.45125        0.0126533          145.49
0.1961                 0.0118332        -26.4291         0.999398        -5.60275         0.999398        -5.60275        0.0126605         145.221
0.2014                 0.0118186        -26.4696         0.999383        -5.75425         0.999383        -5.75425        0.0126676         144.952
0.2067                 0.0118039        -26.5099         0.999367        -5.90576         0.999367        -5.90576        0.0126745         144.683
0.212                  0.0117891        -26.5502         0.999352        -6.05726         0.999352        -6.05726        0.0126814         144.413
0.2173                 0.0117743        -26.5903         0.999337        -6.20876         0.999337        -6.20876        0.0126882         144.143
0.2226                 0.0117594        -26.6303         0.999321        -6.36027         0.999321        -6.36027        0.0126949         143.873
0.2279                 0.0117443        -26.6701         0.999306        -6.51177         0.999306        -6.51177        0.0127014         143.602
0.2332                 0.0117292        -26.7098          0.99929        -6.66328          0.99929        -6.66328        0.0127079         143.332
0.2385                  0.011714        -26.7494         0.999274        -6.81478         0.999274        -6.81478        0.0127143         143.061
0.2438                 0.0116987        -26.7888         0.999259        -6.96629         0.999259        -6.96629        0.0127206         142.789
0.2491                 0.0116834        -26.8281         0.999243        -7.11779         0.999243        -7.11779        0.0127268         142.518
0.2544                 0.0116679        -26.8672         0.999228         -7.2693         0.999228         -7.2693        0.0127329         142.246
0.2597                 0.0116524        -26.9062         0.999212         -7.4208         0.999212         -7.4208        0.0127389         141.973
0.265                  0.0116367         -26.945         0.999196        -7.57231         0.999196        -7.57231        0.0127448         141.701
0.2703                  0.011621        -26.9836         0.999181        -7.72381         0.999181        -7.72381        0.0127506         141.428
0.2756                 0.0116052        -27.0221         0.999165        -7.87532         0.999165        -7.87532        0.0127563         141.155
0.2809                 0.0115893        -27.0604         0.999149        -8.02683         0.999149        -8.02683        0.0127619         140.881
0.2862                 0.0115734        -27.0985         0.999133        -8.17833         0.999133        -8.17833        0.0127675         140.608
0.2915                 0.0115573        -27.1365         0.999118        -8.32984         0.999118        -8.32984        0.0127729         140.333
0.2968                 0.0115412        -27.1742         0.999102        -8.48135         0.999102        -8.48135        0.0127783         140.059
0.3021                 0.0115249        -27.2117         0.999086        -8.63286         0.999086        -8.63286        0.0127836         139.784
0.3074                 0.0115086        -27.2491          0.99907        -8.78436          0.99907        -8.78436        0.0127887         139.509
0.3127                 0.0114922        -27.2863         0.999054        -8.93587         0.999054        -8.93587        0.0127938         139.234
0.318                  0.0114757        -27.3233         0.999038        -9.08738         0.999038        -9.08738        0.0127988         138.958
0.3233                 0.0114591          -27.36         0.999022        -9.23889         0.999022        -9.23889        0.0128037         138.682
0.3286                 0.0114425        -27.3965         0.999006        -9.39039         0.999006        -9.39039        0.0128085         138.406
0.3339                 0.0114257        -27.4329          0.99899         -9.5419          0.99899         -9.5419        0.0128133         138.129
0.3392                 0.0114089         -27.469         0.998974        -9.69341         0.998974        -9.69341        0.0128179         137.852
0.3445                  0.011392        -27.5049         0.998958        -9.84492         0.998958        -9.84492        0.0128225         137.575
0.3498                  0.011375        -27.5405         0.998942        -9.99643         0.998942        -9.99643         0.012827         137.297
0.3551                 0.0113579        -27.5759         0.998926        -10.1479         0.998926        -10.1479        0.0128314         137.019
0.3604                 0.0113407         -27.611          0.99891        -10.2994          0.99891        -10.2994        0.0128357          136.74
0.3657                 0.0113234         -27.646         0.998894         -10.451         0.998894         -10.451        0.0128399         136.461
0.371                  0.0113061        -27.6806         0.998878        -10.6025         0.998878        -10.6025         0.012844         136.182
0.3763                 0.0112887         -27.715         0.998862         -10.754         0.998862         -10.754        0.0128481         135.903
0.3816                 0.0112712        -27.7491         0.998846        -10.9055         0.998846        -10.9055        0.0128521         135.623
0.3869                 0.0112536         -27.783         0.998829         -11.057         0.998829         -11.057         0.012856         135.343
0.3922                 0.0112359        -27.8166         0.998813        -11.2085         0.998813        -11.2085        0.0128598         135.062
0.3975                 0.0112181        -27.8499         0.998797          -11.36         0.998797          -11.36        0.0128635         134.781
0.4028                 0.0112002        -27.8829         0.998781        -11.5115         0.998781        -11.5115        0.0128672           134.5
0.4081                 0.0111823        -27.9156         0.998764         -11.663         0.998764         -11.663        0.0128708         134.218
0.4134                 0.0111643         -27.948         0.998748        -11.8145         0.998748        -11.8145        0.0128743         133.936
0.4187                 0.0111461        -27.9802         0.998732        -11.9661         0.998732        -11.9661        0.0128778         133.654
0.424                  0.0111279         -28.012         0.998715        -12.1176         0.998715        -12.1176        0.0128811         133.371
0.4293                 0.0111097        -28.0435         0.998699        -12.2691         0.998699        -12.2691        0.0128844         133.088
0.4346                 0.0110913        -28.0746         0.998682        -12.4206         0.998682        -12.4206        0.0128876         132.804
0.4399                 0.0110729        -28.1055         0.998666        -12.5721         0.998666        -12.5721        0.0128908          132.52
0.4452                 0.0110543         -28.136         0.998649        -12.7236         0.998649        -12.7236        0.0128938         132.236
0.4505                 0.0110357        -28.1662         0.998633        -12.8751         0.998633        -12.8751        0.0128968         131.951
0.4558                  0.011017         -28.196         0.998616        -13.0266         0.998616        -13.0266        0.0128998         131.666
0.4611                 0.0109982        -28.2254           0.9986        -13.1781           0.9986        -13.1781        0.0129026          131.38
0.4664                 0.0109794        -28.2546         0.998583        -13.3297         0.998583        -13.3297        0.0129054         131.094
0.4717                 0.0109604        -28.2833         0.998567        -13.4812         0.998567        -13.4812        0.0129081         130.808
0.477                  0.0109414        -28.3117          0.99855        -13.6327          0.99855        -13.6327        0.0129108         130.521
0.4823                 0.0109223        -28.3397         0.998533        -13.7842         0.998533        -13.7842        0.0129134         130.234
0.4876                 0.0109031        -28.3673         0.998517        -13.9357         0.998517        -13.9357        0.0129159         129.946
0.4929                 0.0108838        -28.3945           0.9985        -14.0872           0.9985        -14.0872        0.0129184         129.658
0.4982                 0.0108644        -28.4214         0.998483        -14.2387         0.998483        -14.2387        0.0129207          129.37
0.5035                  0.010845        -28.4478         0.998467        -14.3902         0.998467        -14.3902        0.0129231         129.081
0.5088                 0.0108255        -28.4738          0.99845        -14.5418          0.99845        -14.5418        0.0129253         128.792
0.5141                 0.0108058        -28.4994         0.998433        -14.6933         0.998433        -14.6933        0.0129276         128.502
0.5194                 0.0107862        -28.5245         0.998416        -14.8448         0.998416        -14.8448        0.0129297         128.212
0.5247                 0.0107664        -28.5493         0.998399        -14.9963         0.998399        -14.9963        0.0129318         127.921
0.53                   0.0107465        -28.5736         0.998383        -15.1478         0.998383        -15.1478        0.0129338          127.63
0.5353                 0.0107266        -28.5974         0.998366        -15.2993         0.998366        -15.2993        0.0129358         127.339
0.5406                 0.0107066        -28.6208         0.998349        -15.4508         0.998349        -15.4508        0.0129377         127.047
0.5459                 0.0106865        -28.6437         0.998332        -15.6023         0.998332        -15.6023        0.0129395         126.755
0.5512                 0.0106663        -28.6662         0.998315        -15.7539         0.998315        -15.7539        0.0129413         126.462
0.5565                 0.0106461        -28.6882         0.998298        -15.9054         0.998298        -15.9054        0.0129431         126.169
0.5618                 0.0106258        -28.7097         0.998281        -16.0569         0.998281        -16.0569        0.0129448         125.875
0.5671                 0.0106054        -28.7307         0.998264        -16.2084         0.998264        -16.2084        0.0129464         125.581
0.5724                 0.0105849        -28.7512         0.998247        -16.3599         0.998247        -16.3599         0.012948         125.286
0.5777                 0.0105643        -28.7712          0.99823        -16.5114          0.99823        -16.5114        0.0129495         124.991
0.583                  0.0105437        -28.7907         0.998213        -16.6629         0.998213        -16.6629         0.012951         124.696
0.5883                 0.0105229        -28.8097         0.998196        -16.8145         0.998196        -16.8145        0.0129525           124.4
0.5936                 0.0105022        -28.8281         0.998179         -16.966         0.998179         -16.966        0.0129539         124.104
0.5989                 0.0104813         -28.846         0.998161        -17.1175         0.998161        -17.1175        0.0129552         123.807
0.6042                 0.0104603        -28.8634         0.998144         -17.269         0.998144         -17.269        0.0129565          123.51
0.6095                 0.0104393        -28.8802         0.998127        -17.4205         0.998127        -17.4205        0.0129577         123.212
0.6148                 0.0104182        -28.8964          0.99811         -17.572          0.99811         -17.572         0.012959         122.914
0.6201                  0.010397        -28.9121         0.998092        -17.7235         0.998092        -17.7235        0.0129601         122.615
0.6254                 0.0103758        -28.9272         0.998075        -17.8751         0.998075        -17.8751        0.0129613         122.316
0.6307                 0.0103545        -28.9417         0.998058        -18.0266         0.998058        -18.0266        0.0129623         122.016
0.636                  0.0103331        -28.9556         0.998041        -18.1781         0.998041        -18.1781        0.0129634         121.716
0.6413                 0.0103116        -28.9689         0.998023        -18.3296         0.998023        -18.3296        0.0129644         121.416
0.6466                 0.0102901        -28.9815         0.998006        -18.4811         0.998006        -18.4811        0.0129653         121.115
0.6519                 0.0102685        -28.9936         0.997988        -18.6326         0.997988        -18.6326        0.0129663         120.813
0.6572                 0.0102468         -29.005         0.997971        -18.7842         0.997971        -18.7842        0.0129672         120.511
0.6625                  0.010225        -29.0158         0.997954        -18.9357         0.997954        -18.9357         0.012968         120.208
0.6678                 0.0102032        -29.0259         0.997936        -19.0872         0.997936        -19.0872        0.0129688         119.905
0.6731                 0.0101813        -29.0354         0.997919        -19.2387         0.997919        -19.2387        0.0129696         119.602
0.6784                 0.0101593        -29.0442         0.997901        -19.3902         0.997901        -19.3902        0.0129704         119.298
0.6837                 0.0101373        -29.0524         0.997883        -19.5417         0.997883        -19.5417        0.0129711         118.993
0.689                  0.0101151        -29.0598         0.997866        -19.6933         0.997866        -19.6933        0.0129718         118.688
0.6943                  0.010093        -29.0665         0.997848        -19.8448         0.997848        -19.8448        0.0129725         118.383
0.6996                 0.0100707        -29.0725         0.997831        -19.9963         0.997831        -19.9963        0.0129731         118.077
0.7049                 0.0100484        -29.0779         0.997813        -20.1478         0.997813        -20.1478        0.0129737          117.77
0.7102                  0.010026        -29.0825         0.997795        -20.2993         0.997795        -20.2993        0.0129743         117.463
0.7155                 0.0100036        -29.0863         0.997778        -20.4508         0.997778        -20.4508        0.0129749         117.156
0.7208                0.00998109        -29.0894          0.99776        -20.6024          0.99776        -20.6024        0.0129754         116.848
0.7261                0.00995852        -29.0917         0.997742        -20.7539         0.997742        -20.7539         0.012976         116.539
0.7314                0.00993588        -29.0933         0.997724        -20.9054         0.997724        -20.9054        0.0129765          116.23
0.7367                0.00991317        -29.0941         0.997707        -21.0569         0.997707        -21.0569        0.0129769         115.921
0.742                  0.0098904        -29.0941         0.997689        -21.2084         0.997689        -21.2084        0.0129774         115.611
0.7473                0.00986758        -29.0933         0.997671        -21.3599         0.997671        -21.3599        0.0129778           115.3
0.7526                0.00984469        -29.0917         0.997653        -21.5115         0.997653        -21.5115        0.0129783         114.989
0.7579                0.00982174        -29.0893         0.997635         -21.663         0.997635         -21.663        0.0129787         114.677
0.7632                0.00979872         -29.086         0.997617        -21.8145         0.997617        -21.8145        0.0129791         114.365
0.7685                0.00977564        -29.0819         0.997599         -21.966         0.997599         -21.966        0.0129795         114.053
0.7738                0.00975252         -29.077         0.997581        -22.1175         0.997581        -22.1175        0.0129798         113.739
0.7791                0.00972934        -29.0711         0.997564        -22.2691         0.997564        -22.2691        0.0129802         113.426
0.7844                0.00970609        -29.0644         0.997546        -22.4206         0.997546        -22.4206        0.0129806         113.111
0.7897                0.00968278        -29.0568         0.997527        -22.5721         0.997527        -22.5721        0.0129809         112.797
0.795                 0.00965942        -29.0483         0.997509        -22.7236         0.997509        -22.7236        0.0129812         112.481
0.8003                0.00963601        -29.0389         0.997491        -22.8751         0.997491        -22.8751        0.0129816         112.166
0.8056                0.00961255        -29.0285         0.997473        -23.0267         0.997473        -23.0267        0.0129819         111.849
0.8109                0.00958902        -29.0173         0.997455        -23.1782         0.997455        -23.1782        0.0129822         111.532
0.8162                0.00956545        -29.0051         0.997437        -23.3297         0.997437        -23.3297        0.0129825         111.215
0.8215                0.00954181        -28.9919         0.997419        -23.4812         0.997419        -23.4812        0.0129829         110.897
0.8268                0.00951815        -28.9777         0.997401        -23.6327         0.997401        -23.6327        0.0129832         110.579
0.8321                0.00949443        -28.9625         0.997382        -23.7843         0.997382        -23.7843        0.0129835          110.26
0.8374                0.00947065        -28.9464         0.997364        -23.9358         0.997364        -23.9358        0.0129838          109.94
0.8427                0.00944682        -28.9292         0.997346        -24.0873         0.997346        -24.0873        0.0129842          109.62
0.848                 0.00942294         -28.911         0.997328        -24.2388         0.997328        -24.2388        0.0129845         109.299
0.8533                0.00939903        -28.8918         0.997309        -24.3903         0.997309        -24.3903        0.0129848         108.978
0.8586                0.00937507        -28.8715         0.997291        -24.5419         0.997291        -24.5419        0.0129852         108.656
0.8639                0.00935106        -28.8501         0.997273        -24.6934         0.997273        -24.6934        0.0129855         108.334
0.8692                0.00932701        -28.8277         0.997254        -24.8449         0.997254        -24.8449        0.0129859         108.011
0.8745                0.00930291        -28.8042         0.997236        -24.9964         0.997236        -24.9964        0.0129863         107.688
0.8798                0.00927878        -28.7796         0.997217        -25.1479         0.997217        -25.1479        0.0129867         107.364
0.8851                0.00925461        -28.7538         0.997199        -25.2995         0.997199        -25.2995        0.0129871          107.04
0.8904                 0.0092304        -28.7269          0.99718         -25.451          0.99718         -25.451        0.0129875         106.715
0.8957                0.00920614        -28.6989         0.997162        -25.6025         0.997162        -25.6025         0.012988         106.389
0.901                 0.00918185        -28.6697         0.997143         -25.754         0.997143         -25.754        0.0129884         106.063
0.9063                0.00915753        -28.6393         0.997125        -25.9055         0.997125        -25.9055        0.0129889         105.736
0.9116                0.00913318        -28.6077         0.997106        -26.0571         0.997106        -26.0571        0.0129894         105.409
0.9169                0.00910878        -28.5749         0.997088        -26.2086         0.997088        -26.2086        0.0129899         105.081
0.9222                0.00908435        -28.5409         0.997069        -26.3601         0.997069        -26.3601        0.0129904         104.753
0.9275                0.00905989        -28.5057          0.99705        -26.5116          0.99705        -26.5116         0.012991         104.424
0.9328                0.00903541        -28.4692         0.997032        -26.6632         0.997032        -26.6632        0.0129916         104.095
0.9381                 0.0090109        -28.4314         0.997013        -26.8147         0.997013        -26.8147        0.0129922         103.765
0.9434                0.00898635        -28.3924         0.996994        -26.9662         0.996994        -26.9662        0.0129929         103.435
0.9487                0.00896178         -28.352         0.996975        -27.1177         0.996975        -27.1177        0.0129936         103.104
0.954                 0.00893718        -28.3104         0.996957        -27.2693         0.996957        -27.2693        0.0129943         102.772
0.9593                0.00891257        -28.2674         0.996938        -27.4208         0.996938        -27.4208         0.012995          102.44
0.9646                0.00888794         -28.223         0.996919        -27.5723         0.996919        -27.5723        0.0129958         102.107
0.9699                0.00886328        -28.1773           0.9969        -27.7238           0.9969        -27.7238        0.0129966         101.774
0.9752                 0.0088386        -28.1302         0.996881        -27.8753         0.996881        -27.8753        0.0129975          101.44
0.9805                 0.0088139        -28.0818         0.996862        -28.0269         0.996862        -28.0269        0.0129984         101.106
0.9858                0.00878919        -28.0318         0.996843        -28.1784         0.996843        -28.1784        0.0129993         100.771
0.9911                0.00876447        -27.9805         0.996825        -28.3299         0.996825        -28.3299        0.0130003         100.436
0.9964                0.00873972        -27.9277         0.996806        -28.4814         0.996806        -28.4814        0.0130013           100.1