! TOUCHSTONE file generated by CST MICROWAVE STUDIO
! Date and time: Tue Jan  7 09:43:42 2020
! Project name: OSHPark_FR408_Transition2.cst
! Parameters = {GND_Plane_XMax=12.75; Cap_Disk_XOffset=0; Cap_Disk2_YCenter=-1.03; Cap_Disk_YCenter=1.03; Cap_Disk_XCenter=7.39; Cap_Disk_Radius=0.5; BottomSupport_Left_YMax=4.76; BottomSupport_Left_YMin=3.74; BottomSupport_Right_YMax=-3.74; BottomSupport_Right_YMin=-4.76; BottomSupport_XMax=11.64; BottomSupport_XMin=6.89; BottomSupport_ZMax=-1.64084; BottomSupport_ZMin=-3.58; Cu1_Thickness=0.03556; Cu2_Thickness=0.01778; Fr408Core_Thickness=1.1938; GND_Plane_Offset=2.875; PCBThickness=1.6256; Prepreg1_Zmin=-0.20574; Prepreg_Thickness=0.17018; RFTraceYMax=0.17145; RFTrace_XMax=15; RFTrace_XMin=11.46; RFTrace_YMin=-0.17145; SMA_CenterCond_Inner_XMax=11.64; SMA_CenterCond_Radius=0.6; SMA_Dielectric_InnerRadius=0.6; SMA_Dielectric_OuterRadius=2; SMA_Dielectric_XMax=5.62; SMA_Dielectric_XMin=0; SMA_Dielectric_YCenter=0; SMA_Dielectric_ZCenter=0; SMA_Footprint_Center_XMax=12.49; SMA_Footprint_Center_XMin=7.74; SMA_Footprint_Center_YMax=0.75; SMA_Footprint_Center_YMin=-0.75; SMA_OuterCond_InnerRadius=2; SMA_OuterCond_OuterRadius=3; SMA_OuterCond_XMax=6.89; SMA_XMax=6.67; SMA_XMin=0; SMA_YCenter=0; SMA_ZCenter=0; TopSupport_ZMax=1.02; TopSupport_ZMin=0; Via1_XCenter=7.5; Via1_YCenter=-4.25; Via2_XCenter=8.75; Via2_YCenter=-4.25; Via3_XCenter=10; Via3_YCenter=-4.25; Via4_XCenter=11.25; Via4_YCenter=-4.25; Via5_XCenter=7.5; Via5_YCenter=4.25; Via6_XCenter=8.75; Via6_YCenter=4.25; Via7_XCenter=10; Via7_YCenter=4.25; Via8_XCenter=11.25; Via8_YCenter=4.25; ViaInnerRadius=0; ViaOuterRadius=0.381}
! Header version: 2015
! Port assignment regex: !\s*Touchstone port\s*([0-9]+)\s*=\s*CST MWS port\s*([0-9]+)\s*\(\"(.*)\"\)(\s*mode\s*([0-9]+))?.*
! Touchstone port assignment:
! Touchstone port 1 = CST MWS port 1 ("")
! Touchstone port 2 = CST MWS port 2 ("")
# GHz S MA R 50
0                      0.0118875               0         0.999943               0         0.999943               0         0.011887             180
0.0053                 0.0128898        -22.5134           0.9999        -0.15917           0.9999        -0.15917        0.0130657         155.062
0.0106                  0.012867        -22.6929         0.999915       -0.305554         0.999915       -0.305554        0.0130976          154.97
0.0159                 0.0128355        -22.5488         0.999897       -0.456001         0.999897       -0.456001        0.0131157         154.507
0.0212                 0.0128012        -22.3355         0.999878       -0.607331         0.999878       -0.607331        0.0131421         153.987
0.0265                 0.0127673        -22.0926         0.999859       -0.758992         0.999859       -0.758992        0.0131741          153.45
0.0318                 0.0127306        -21.8404         0.999841       -0.910813         0.999841       -0.910813         0.013206         152.901
0.0371                  0.012696        -21.5761         0.999822        -1.06272         0.999822        -1.06272        0.0132414         152.351
0.0424                 0.0126685        -21.2942         0.999804        -1.21469         0.999804        -1.21469        0.0132847         151.814
0.0477                 0.0126385        -21.0128         0.999786        -1.36669         0.999786        -1.36669        0.0133262         151.271
0.053                  0.0126062        -20.7322         0.999768        -1.51871         0.999768        -1.51871        0.0133659         150.723
0.0583                 0.0125708        -20.4541          0.99975        -1.67076          0.99975        -1.67076        0.0134028         150.169
0.0636                 0.0125368        -20.1713         0.999731        -1.82282         0.999731        -1.82282        0.0134412         149.618
0.0689                 0.0125041        -19.8844         0.999713        -1.97489         0.999713        -1.97489        0.0134809          149.07
0.0742                 0.0124718        -19.5948         0.999695        -2.12696         0.999695        -2.12696        0.0135212         148.524
0.0795                 0.0124398        -19.3032         0.999677        -2.27904         0.999677        -2.27904        0.0135617         147.978
0.0848                 0.0124077          -19.01         0.999659        -2.43113         0.999659        -2.43113        0.0136022         147.434
0.0901                  0.012376        -18.7146         0.999641        -2.58322         0.999641        -2.58322        0.0136431          146.89
0.0954                 0.0123448        -18.4171         0.999623        -2.73532         0.999623        -2.73532        0.0136843         146.349
0.1007                 0.0123139        -18.1176         0.999605        -2.88741         0.999605        -2.88741        0.0137257         145.808
0.106                  0.0122833        -17.8163         0.999587        -3.03951         0.999587        -3.03951        0.0137674         145.269
0.1113                  0.012253        -17.5132         0.999569        -3.19161         0.999569        -3.19161        0.0138093         144.732
0.1166                 0.0122231        -17.2081         0.999551        -3.34371         0.999551        -3.34371        0.0138515         144.195
0.1219                 0.0121936        -16.9012         0.999533        -3.49582         0.999533        -3.49582        0.0138939         143.661
0.1272                 0.0121644        -16.5925         0.999515        -3.64792         0.999515        -3.64792        0.0139366         143.127
0.1325                 0.0121356         -16.282         0.999496        -3.80002         0.999496        -3.80002        0.0139795         142.596
0.1378                 0.0121072        -15.9696         0.999478        -3.95213         0.999478        -3.95213        0.0140226         142.065
0.1431                 0.0120792        -15.6555          0.99946        -4.10424          0.99946        -4.10424        0.0140659         141.536
0.1484                 0.0120515        -15.3396         0.999442        -4.25634         0.999442        -4.25634        0.0141094         141.009
0.1537                 0.0120243         -15.022         0.999424        -4.40845         0.999424        -4.40845        0.0141532         140.483
0.159                  0.0119974        -14.7026         0.999405        -4.56055         0.999405        -4.56055        0.0141972         139.958
0.1643                 0.0119709        -14.3814         0.999387        -4.71266         0.999387        -4.71266        0.0142414         139.435
0.1696                 0.0119449        -14.0586         0.999369        -4.86476         0.999369        -4.86476        0.0142858         138.913
0.1749                 0.0119192         -13.734         0.999351        -5.01687         0.999351        -5.01687        0.0143305         138.393
0.1802                  0.011894        -13.4077         0.999332        -5.16898         0.999332        -5.16898        0.0143753         137.874
0.1855                 0.0118692        -13.0797         0.999314        -5.32108         0.999314        -5.32108        0.0144203         137.356
0.1908                 0.0118448          -12.75         0.999296        -5.47319         0.999296        -5.47319        0.0144656          136.84
0.1961                 0.0118208        -12.4187         0.999277        -5.62529         0.999277        -5.62529         0.014511         136.325
0.2014                 0.0117973        -12.0857         0.999259         -5.7774         0.999259         -5.7774        0.0145567         135.811
0.2067                 0.0117742        -11.7511         0.999241         -5.9295         0.999241         -5.9295        0.0146025         135.299
0.212                  0.0117515        -11.4148         0.999222        -6.08161         0.999222        -6.08161        0.0146485         134.789
0.2173                 0.0117292         -11.077         0.999204        -6.23371         0.999204        -6.23371        0.0146948         134.279
0.2226                 0.0117075        -10.7375         0.999185        -6.38582         0.999185        -6.38582        0.0147412         133.771
0.2279                 0.0116861        -10.3964         0.999167        -6.53792         0.999167        -6.53792        0.0147878         133.264
0.2332                 0.0116652        -10.0538         0.999149        -6.69002         0.999149        -6.69002        0.0148346         132.759
0.2385                 0.0116448        -9.70959          0.99913        -6.84213          0.99913        -6.84213        0.0148816         132.255
0.2438                 0.0116248        -9.36386         0.999112        -6.99423         0.999112        -6.99423        0.0149289         131.752
0.2491                 0.0116053        -9.01661         0.999093        -7.14633         0.999093        -7.14633        0.0149762         131.251
0.2544                 0.0115862        -8.66786         0.999075        -7.29844         0.999075        -7.29844        0.0150238          130.75
0.2597                 0.0115677        -8.31762         0.999056        -7.45054         0.999056        -7.45054        0.0150715         130.251
0.265                  0.0115495        -7.96592         0.999037        -7.60264         0.999037        -7.60264        0.0151195         129.754
0.2703                 0.0115319        -7.61277         0.999019        -7.75474         0.999019        -7.75474        0.0151676         129.257
0.2756                 0.0115148        -7.25819            0.999        -7.90684            0.999        -7.90684        0.0152159         128.762
0.2809                 0.0114981        -6.90222         0.998982        -8.05894         0.998982        -8.05894        0.0152644         128.268
0.2862                 0.0114819        -6.54486         0.998963        -8.21104         0.998963        -8.21104         0.015313         127.775
0.2915                 0.0114663        -6.18614         0.998944        -8.36314         0.998944        -8.36314        0.0153619         127.283
0.2968                 0.0114511        -5.82608         0.998926        -8.51524         0.998926        -8.51524        0.0154109         126.793
0.3021                 0.0114364         -5.4647         0.998907        -8.66734         0.998907        -8.66734        0.0154601         126.304
0.3074                 0.0114222        -5.10204         0.998888        -8.81944         0.998888        -8.81944        0.0155095         125.816
0.3127                 0.0114086        -4.73812         0.998869        -8.97153         0.998869        -8.97153         0.015559         125.329
0.318                  0.0113954        -4.37296         0.998851        -9.12363         0.998851        -9.12363        0.0156087         124.844
0.3233                 0.0113828        -4.00658         0.998832        -9.27573         0.998832        -9.27573        0.0156586         124.359
0.3286                 0.0113706        -3.63902         0.998813        -9.42782         0.998813        -9.42782        0.0157087         123.876
0.3339                  0.011359         -3.2703         0.998794        -9.57992         0.998794        -9.57992        0.0157589         123.394
0.3392                 0.0113479        -2.90045         0.998775        -9.73202         0.998775        -9.73202        0.0158093         122.912
0.3445                 0.0113374        -2.52951         0.998756        -9.88411         0.998756        -9.88411        0.0158599         122.433
0.3498                 0.0113274        -2.15749         0.998738        -10.0362         0.998738        -10.0362        0.0159107         121.954
0.3551                 0.0113179        -1.78443         0.998719        -10.1883         0.998719        -10.1883        0.0159616         121.476
0.3604                 0.0113089        -1.41036           0.9987        -10.3404           0.9987        -10.3404        0.0160127         120.999
0.3657                 0.0113005        -1.03532         0.998681        -10.4925         0.998681        -10.4925        0.0160639         120.524
0.371                  0.0112927       -0.659322         0.998662        -10.6446         0.998662        -10.6446        0.0161153         120.049
0.3763                 0.0112853       -0.282421         0.998643        -10.7967         0.998643        -10.7967         0.016167         119.576
0.3816                 0.0112786       0.0953614         0.998624        -10.9488         0.998624        -10.9488        0.0162187         119.104
0.3869                 0.0112724        0.473993         0.998605        -11.1009         0.998605        -11.1009        0.0162706         118.632
0.3922                 0.0112667        0.853436         0.998586         -11.253         0.998586         -11.253        0.0163227         118.162
0.3975                 0.0112616         1.23366         0.998567         -11.405         0.998567         -11.405         0.016375         117.693
0.4028                 0.0112571         1.61461         0.998548        -11.5571         0.998548        -11.5571        0.0164274         117.225
0.4081                 0.0112531         1.99627         0.998529        -11.7092         0.998529        -11.7092          0.01648         116.758
0.4134                 0.0112498          2.3786         0.998509        -11.8613         0.998509        -11.8613        0.0165328         116.292
0.4187                 0.0112469         2.76157          0.99849        -12.0134          0.99849        -12.0134        0.0165857         115.827
0.424                  0.0112447         3.14513         0.998471        -12.1655         0.998471        -12.1655        0.0166388         115.362
0.4293                  0.011243         3.52924         0.998452        -12.3176         0.998452        -12.3176         0.016692         114.899
0.4346                 0.0112419         3.91386         0.998433        -12.4697         0.998433        -12.4697        0.0167454         114.437
0.4399                 0.0112414         4.29897         0.998414        -12.6218         0.998414        -12.6218         0.016799         113.976
0.4452                 0.0112415         4.68452         0.998394        -12.7739         0.998394        -12.7739        0.0168527         113.516
0.4505                 0.0112422         5.07047         0.998375        -12.9259         0.998375        -12.9259        0.0169066         113.057
0.4558                 0.0112434         5.45677         0.998356         -13.078         0.998356         -13.078        0.0169607         112.598
0.4611                 0.0112453         5.84339         0.998336        -13.2301         0.998336        -13.2301        0.0170149         112.141
0.4664                 0.0112477         6.23029         0.998317        -13.3822         0.998317        -13.3822        0.0170693         111.685
0.4717                 0.0112507         6.61744         0.998298        -13.5343         0.998298        -13.5343        0.0171238         111.229
0.477                  0.0112544         7.00478         0.998278        -13.6864         0.998278        -13.6864        0.0171785         110.775
0.4823                 0.0112586         7.39226         0.998259        -13.8385         0.998259        -13.8385        0.0172334         110.321
0.4876                 0.0112634         7.77986         0.998239        -13.9905         0.998239        -13.9905        0.0172885         109.869
0.4929                 0.0112689         8.16754          0.99822        -14.1426          0.99822        -14.1426        0.0173437         109.417
0.4982                 0.0112749         8.55525         0.998201        -14.2947         0.998201        -14.2947         0.017399         108.966
0.5035                 0.0112816         8.94295         0.998181        -14.4468         0.998181        -14.4468        0.0174545         108.516
0.5088                 0.0112888         9.33058         0.998162        -14.5989         0.998162        -14.5989        0.0175102         108.067
0.5141                 0.0112967         9.71812         0.998142         -14.751         0.998142         -14.751        0.0175661         107.619
0.5194                 0.0113052         10.1055         0.998123         -14.903         0.998123         -14.903        0.0176221         107.172
0.5247                 0.0113143         10.4927         0.998103        -15.0551         0.998103        -15.0551        0.0176782         106.725
0.53                    0.011324         10.8797         0.998083        -15.2072         0.998083        -15.2072        0.0177346          106.28
0.5353                 0.0113343         11.2665         0.998064        -15.3593         0.998064        -15.3593        0.0177911         105.835
0.5406                 0.0113453         11.6529         0.998044        -15.5114         0.998044        -15.5114        0.0178477         105.391
0.5459                 0.0113569          12.039         0.998024        -15.6635         0.998024        -15.6635        0.0179045         104.948
0.5512                  0.011369         12.4246         0.998005        -15.8155         0.998005        -15.8155        0.0179615         104.506
0.5565                 0.0113818         12.8099         0.997985        -15.9676         0.997985        -15.9676        0.0180186         104.064
0.5618                 0.0113953         13.1946         0.997965        -16.1197         0.997965        -16.1197        0.0180759         103.624
0.5671                 0.0114093         13.5788         0.997946        -16.2718         0.997946        -16.2718        0.0181334         103.184
0.5724                  0.011424         13.9625         0.997926        -16.4239         0.997926        -16.4239         0.018191         102.745
0.5777                 0.0114393         14.3456         0.997906        -16.5759         0.997906        -16.5759        0.0182488         102.307
0.583                  0.0114552          14.728         0.997886         -16.728         0.997886         -16.728        0.0183067          101.87
0.5883                 0.0114717         15.1098         0.997866        -16.8801         0.997866        -16.8801        0.0183649         101.434
0.5936                 0.0114889         15.4908         0.997846        -17.0322         0.997846        -17.0322        0.0184231         100.998
0.5989                 0.0115067          15.871         0.997827        -17.1843         0.997827        -17.1843        0.0184816         100.563
0.6042                 0.0115251         16.2505         0.997807        -17.3363         0.997807        -17.3363        0.0185402         100.129
0.6095                 0.0115441         16.6291         0.997787        -17.4884         0.997787        -17.4884        0.0185989         99.6959
0.6148                 0.0115638         17.0068         0.997767        -17.6405         0.997767        -17.6405        0.0186579         99.2635
0.6201                 0.0115841         17.3836         0.997747        -17.7926         0.997747        -17.7926         0.018717         98.8318
0.6254                  0.011605         17.7594         0.997727        -17.9447         0.997727        -17.9447        0.0187762         98.4008
0.6307                 0.0116265         18.1342         0.997707        -18.0967         0.997707        -18.0967        0.0188357         97.9706
0.636                  0.0116487          18.508         0.997687        -18.2488         0.997687        -18.2488        0.0188952         97.5412
0.6413                 0.0116715         18.8807         0.997667        -18.4009         0.997667        -18.4009         0.018955         97.1125
0.6466                 0.0116949         19.2523         0.997647         -18.553         0.997647         -18.553        0.0190149         96.6846
0.6519                 0.0117189         19.6227         0.997626         -18.705         0.997626         -18.705         0.019075         96.2574
0.6572                 0.0117436          19.992         0.997606        -18.8571         0.997606        -18.8571        0.0191352         95.8309
0.6625                 0.0117689           20.36         0.997586        -19.0092         0.997586        -19.0092        0.0191957         95.4052
0.6678                 0.0117948         20.7268         0.997566        -19.1613         0.997566        -19.1613        0.0192562         94.9803
0.6731                 0.0118213         21.0923         0.997546        -19.3133         0.997546        -19.3133         0.019317          94.556
0.6784                 0.0118484         21.4565         0.997525        -19.4654         0.997525        -19.4654        0.0193779         94.1325
0.6837                 0.0118762         21.8193         0.997505        -19.6175         0.997505        -19.6175         0.019439         93.7097
0.689                  0.0119045         22.1808         0.997485        -19.7696         0.997485        -19.7696        0.0195002         93.2876
0.6943                 0.0119335         22.5408         0.997465        -19.9216         0.997465        -19.9216        0.0195617         92.8662
0.6996                 0.0119631         22.8993         0.997444        -20.0737         0.997444        -20.0737        0.0196232         92.4456
0.7049                 0.0119933         23.2564         0.997424        -20.2258         0.997424        -20.2258         0.019685         92.0256
0.7102                 0.0120242          23.612         0.997403        -20.3779         0.997403        -20.3779        0.0197469         91.6063
0.7155                 0.0120556         23.9661         0.997383        -20.5299         0.997383        -20.5299         0.019809         91.1878
0.7208                 0.0120877         24.3185         0.997363         -20.682         0.997363         -20.682        0.0198713         90.7699
0.7261                 0.0121203         24.6694         0.997342        -20.8341         0.997342        -20.8341        0.0199337         90.3527
0.7314                 0.0121536         25.0187         0.997322        -20.9861         0.997322        -20.9861        0.0199963         89.9362
0.7367                 0.0121875         25.3663         0.997301        -21.1382         0.997301        -21.1382        0.0200591         89.5204
0.742                  0.0122219         25.7123         0.997281        -21.2903         0.997281        -21.2903         0.020122         89.1052
0.7473                  0.012257         26.0565          0.99726        -21.4424          0.99726        -21.4424        0.0201851         88.6908
0.7526                 0.0122927         26.3991         0.997239        -21.5944         0.997239        -21.5944        0.0202484          88.277
0.7579                  0.012329         26.7399         0.997219        -21.7465         0.997219        -21.7465        0.0203119         87.8639
0.7632                 0.0123659         27.0789         0.997198        -21.8986         0.997198        -21.8986        0.0203755         87.4514
0.7685                 0.0124033         27.4162         0.997178        -22.0506         0.997178        -22.0506        0.0204393         87.0396
0.7738                 0.0124414         27.7516         0.997157        -22.2027         0.997157        -22.2027        0.0205033         86.6285
0.7791                 0.0124801         28.0852         0.997136        -22.3548         0.997136        -22.3548        0.0205674          86.218
0.7844                 0.0125193         28.4169         0.997115        -22.5069         0.997115        -22.5069        0.0206318         85.8081
0.7897                 0.0125591         28.7468         0.997095        -22.6589         0.997095        -22.6589        0.0206962         85.3989
0.795                  0.0125996         29.0749         0.997074         -22.811         0.997074         -22.811        0.0207609         84.9904
0.8003                 0.0126406         29.4009         0.997053        -22.9631         0.997053        -22.9631        0.0208258         84.5825
0.8056                 0.0126822         29.7251         0.997032        -23.1151         0.997032        -23.1151        0.0208908         84.1753
0.8109                 0.0127243         30.0474         0.997011        -23.2672         0.997011        -23.2672         0.020956         83.7686
0.8162                 0.0127671         30.3677          0.99699        -23.4193          0.99699        -23.4193        0.0210214         83.3626
0.8215                 0.0128104          30.686          0.99697        -23.5713          0.99697        -23.5713        0.0210869         82.9572
0.8268                 0.0128543         31.0023         0.996949        -23.7234         0.996949        -23.7234        0.0211526         82.5525
0.8321                 0.0128987         31.3166         0.996928        -23.8755         0.996928        -23.8755        0.0212186         82.1484
0.8374                 0.0129437          31.629         0.996907        -24.0276         0.996907        -24.0276        0.0212846         81.7449
0.8427                 0.0129893         31.9393         0.996886        -24.1796         0.996886        -24.1796        0.0213509         81.3421
0.848                  0.0130355         32.2476         0.996865        -24.3317         0.996865        -24.3317        0.0214173         80.9398
0.8533                 0.0130822         32.5538         0.996844        -24.4838         0.996844        -24.4838         0.021484         80.5382
0.8586                 0.0131295          32.858         0.996822        -24.6358         0.996822        -24.6358        0.0215508         80.1372
0.8639                 0.0131773         33.1601         0.996801        -24.7879         0.996801        -24.7879        0.0216177         79.7368
0.8692                 0.0132257         33.4602          0.99678          -24.94          0.99678          -24.94        0.0216849          79.337
0.8745                 0.0132746         33.7582         0.996759         -25.092         0.996759         -25.092        0.0217522         78.9377
0.8798                 0.0133241          34.054         0.996738        -25.2441         0.996738        -25.2441        0.0218197         78.5392
0.8851                 0.0133741         34.3478         0.996716        -25.3962         0.996716        -25.3962        0.0218875         78.1412
0.8904                 0.0134247         34.6395         0.996695        -25.5482         0.996695        -25.5482        0.0219553         77.7438
0.8957                 0.0134758         34.9291         0.996674        -25.7003         0.996674        -25.7003        0.0220234          77.347
0.901                  0.0135274         35.2166         0.996653        -25.8524         0.996653        -25.8524        0.0220916         76.9507
0.9063                 0.0135796          35.502         0.996631        -26.0044         0.996631        -26.0044        0.0221601         76.5551
0.9116                 0.0136324         35.7852          0.99661        -26.1565          0.99661        -26.1565        0.0222287         76.1601
0.9169                 0.0136856         36.0663         0.996588        -26.3086         0.996588        -26.3086        0.0222975         75.7657
0.9222                 0.0137394         36.3453         0.996567        -26.4606         0.996567        -26.4606        0.0223665         75.3718
0.9275                 0.0137937         36.6222         0.996546        -26.6127         0.996546        -26.6127        0.0224356         74.9785
0.9328                 0.0138485         36.8968         0.996524        -26.7648         0.996524        -26.7648         0.022505         74.5858
0.9381                 0.0139038         37.1694         0.996503        -26.9168         0.996503        -26.9168        0.0225745         74.1937
0.9434                 0.0139597         37.4399         0.996481        -27.0689         0.996481        -27.0689        0.0226443         73.8021
0.9487                 0.0140161         37.7082          0.99646         -27.221          0.99646         -27.221        0.0227142         73.4112
0.954                   0.014073         37.9744         0.996438         -27.373         0.996438         -27.373        0.0227843         73.0207
0.9593                 0.0141304         38.2384         0.996416        -27.5251         0.996416        -27.5251        0.0228546         72.6309
0.9646                 0.0141883         38.5003         0.996395        -27.6772         0.996395        -27.6772         0.022925         72.2417
0.9699                 0.0142467         38.7601         0.996373        -27.8292         0.996373        -27.8292        0.0229957          71.853
0.9752                 0.0143056         39.0177         0.996351        -27.9813         0.996351        -27.9813        0.0230665         71.4648
0.9805                  0.014365         39.2732          0.99633        -28.1334          0.99633        -28.1334        0.0231376         71.0772
0.9858                 0.0144249         39.5266         0.996308        -28.2854         0.996308        -28.2854        0.0232088         70.6902
0.9911                 0.0144853         39.7778         0.996286        -28.4375         0.996286        -28.4375        0.0232802         70.3038
0.9964                 0.0145462         40.0269         0.996264        -28.5896         0.996264        -28.5896        0.0233518         69.9179