! TOUCHSTONE file generated by CST MICROWAVE STUDIO
! Date and time: Tue Jan  7 09:43:53 2020
! Project name: OSHPark_FR408_Transition2.cst
! Parameters = {GND_Plane_XMax=13; Cap_Disk_XOffset=0; Cap_Disk2_YCenter=-1.03; Cap_Disk_YCenter=1.03; Cap_Disk_XCenter=7.39; Cap_Disk_Radius=0.5; BottomSupport_Left_YMax=4.76; BottomSupport_Left_YMin=3.74; BottomSupport_Right_YMax=-3.74; BottomSupport_Right_YMin=-4.76; BottomSupport_XMax=11.64; BottomSupport_XMin=6.89; BottomSupport_ZMax=-1.64084; BottomSupport_ZMin=-3.58; Cu1_Thickness=0.03556; Cu2_Thickness=0.01778; Fr408Core_Thickness=1.1938; GND_Plane_Offset=2.9; PCBThickness=1.6256; Prepreg1_Zmin=-0.20574; Prepreg_Thickness=0.17018; RFTraceYMax=0.17145; RFTrace_XMax=15; RFTrace_XMin=11.46; RFTrace_YMin=-0.17145; SMA_CenterCond_Inner_XMax=11.64; SMA_CenterCond_Radius=0.6; SMA_Dielectric_InnerRadius=0.6; SMA_Dielectric_OuterRadius=2; SMA_Dielectric_XMax=5.62; SMA_Dielectric_XMin=0; SMA_Dielectric_YCenter=0; SMA_Dielectric_ZCenter=0; SMA_Footprint_Center_XMax=12.49; SMA_Footprint_Center_XMin=7.74; SMA_Footprint_Center_YMax=0.75; SMA_Footprint_Center_YMin=-0.75; SMA_OuterCond_InnerRadius=2; SMA_OuterCond_OuterRadius=3; SMA_OuterCond_XMax=6.89; SMA_XMax=6.67; SMA_XMin=0; SMA_YCenter=0; SMA_ZCenter=0; TopSupport_ZMax=1.02; TopSupport_ZMin=0; Via1_XCenter=7.5; Via1_YCenter=-4.25; Via2_XCenter=8.75; Via2_YCenter=-4.25; Via3_XCenter=10; Via3_YCenter=-4.25; Via4_XCenter=11.25; Via4_YCenter=-4.25; Via5_XCenter=7.5; Via5_YCenter=4.25; Via6_XCenter=8.75; Via6_YCenter=4.25; Via7_XCenter=10; Via7_YCenter=4.25; Via8_XCenter=11.25; Via8_YCenter=4.25; ViaInnerRadius=0; ViaOuterRadius=0.381}
! Header version: 2015
! Port assignment regex: !\s*Touchstone port\s*([0-9]+)\s*=\s*CST MWS port\s*([0-9]+)\s*\(\"(.*)\"\)(\s*mode\s*([0-9]+))?.*
! Touchstone port assignment:
! Touchstone port 1 = CST MWS port 1 ("")
! Touchstone port 2 = CST MWS port 2 ("")
# GHz S MA R 50
0                       0.261679               0         0.743212               0         0.743212               0          0.25189               0
0.0053                 0.0106638        -27.6724         0.999956       -0.159487         0.999956       -0.159487        0.0109324         149.761
0.0106                 0.0106524        -27.7221         0.999941       -0.307166         0.999941       -0.307166         0.010939         149.506
0.0159                 0.0106192        -27.4935         0.999927       -0.458094         0.999927       -0.458094        0.0109793         149.004
0.0212                 0.0105786        -27.1987         0.999912       -0.609836         0.999912       -0.609836         0.011026         148.437
0.0265                 0.0105346        -26.8773         0.999898       -0.761903         0.999898       -0.761903        0.0110748         147.844
0.0318                 0.0104903        -26.5375         0.999883       -0.914132         0.999883       -0.914132        0.0111261         147.243
0.0371                 0.0104447        -26.1888         0.999869        -1.06645         0.999869        -1.06645        0.0111775         146.636
0.0424                  0.010396        -25.8383         0.999854        -1.21884         0.999854        -1.21884        0.0112268         146.019
0.0477                 0.0103485        -25.4783          0.99984        -1.37126          0.99984        -1.37126        0.0112777         145.405
0.053                  0.0103021        -25.1097         0.999825        -1.52371         0.999825        -1.52371          0.01133         144.795
0.0583                 0.0102573        -24.7327         0.999811        -1.67617         0.999811        -1.67617        0.0113841          144.19
0.0636                 0.0102125         -24.352         0.999796        -1.82865         0.999796        -1.82865        0.0114382         143.585
0.0689                 0.0101676        -23.9675         0.999782        -1.98115         0.999782        -1.98115        0.0114923         142.981
0.0742                  0.010123        -23.5788         0.999767        -2.13365         0.999767        -2.13365        0.0115466         142.379
0.0795                 0.0100789        -23.1855         0.999752        -2.28616         0.999752        -2.28616        0.0116013          141.78
0.0848                 0.0100354        -22.7876         0.999738        -2.43868         0.999738        -2.43868        0.0116565         141.183
0.0901                0.00999234        -22.3855         0.999723         -2.5912         0.999723         -2.5912         0.011712         140.589
0.0954                 0.0099497        -21.9793         0.999708        -2.74372         0.999708        -2.74372        0.0117677         139.997
0.1007                0.00990756         -21.569         0.999693        -2.89625         0.999693        -2.89625        0.0118237         139.408
0.106                 0.00986595        -21.1544         0.999678        -3.04878         0.999678        -3.04878        0.0118801         138.821
0.1113                0.00982489        -20.7357         0.999663        -3.20132         0.999663        -3.20132        0.0119367         138.237
0.1166                0.00978435        -20.3129         0.999648        -3.35385         0.999648        -3.35385        0.0119936         137.656
0.1219                0.00974434        -19.8861         0.999634        -3.50639         0.999634        -3.50639        0.0120508         137.076
0.1272                0.00970488        -19.4552         0.999619        -3.65893         0.999619        -3.65893        0.0121082           136.5
0.1325                0.00966599        -19.0203         0.999603        -3.81148         0.999603        -3.81148        0.0121659         135.926
0.1378                0.00962769        -18.5812         0.999588        -3.96402         0.999588        -3.96402        0.0122238         135.354
0.1431                0.00958998        -18.1382         0.999573        -4.11656         0.999573        -4.11656         0.012282         134.785
0.1484                0.00955283        -17.6912         0.999558        -4.26911         0.999558        -4.26911        0.0123404         134.218
0.1537                 0.0095163        -17.2401         0.999543        -4.42166         0.999543        -4.42166        0.0123991         133.654
0.159                 0.00948037        -16.7851         0.999528         -4.5742         0.999528         -4.5742         0.012458         133.092
0.1643                0.00944509        -16.3261         0.999513        -4.72675         0.999513        -4.72675        0.0125172         132.532
0.1696                0.00941043        -15.8632         0.999497         -4.8793         0.999497         -4.8793        0.0125766         131.975
0.1749                 0.0093764        -15.3963         0.999482        -5.03185         0.999482        -5.03185        0.0126362          131.42
0.1802                0.00934302        -14.9255         0.999467        -5.18441         0.999467        -5.18441         0.012696         130.868
0.1855                 0.0093103        -14.4509         0.999451        -5.33696         0.999451        -5.33696        0.0127561         130.317
0.1908                0.00927827        -13.9724         0.999436        -5.48951         0.999436        -5.48951        0.0128164         129.769
0.1961                0.00924691          -13.49          0.99942        -5.64206          0.99942        -5.64206        0.0128769         129.224
0.2014                0.00921622        -13.0039         0.999405        -5.79462         0.999405        -5.79462        0.0129376          128.68
0.2067                0.00918623         -12.514         0.999389        -5.94717         0.999389        -5.94717        0.0129985         128.138
0.212                 0.00915694        -12.0204         0.999374        -6.09973         0.999374        -6.09973        0.0130596         127.599
0.2173                0.00912839        -11.5231         0.999358        -6.25228         0.999358        -6.25228         0.013121         127.062
0.2226                0.00910055        -11.0222         0.999342        -6.40484         0.999342        -6.40484        0.0131825         126.527
0.2279                0.00907343        -10.5176         0.999327         -6.5574         0.999327         -6.5574        0.0132443         125.994
0.2332                0.00904706        -10.0095         0.999311        -6.70995         0.999311        -6.70995        0.0133062         125.463
0.2385                0.00902144        -9.49796         0.999295        -6.86251         0.999295        -6.86251        0.0133684         124.934
0.2438                0.00899659        -8.98292         0.999279        -7.01507         0.999279        -7.01507        0.0134307         124.407
0.2491                 0.0089725         -8.4645         0.999264        -7.16763         0.999264        -7.16763        0.0134933         123.882
0.2544                0.00894918        -7.94275         0.999248        -7.32019         0.999248        -7.32019         0.013556         123.359
0.2597                0.00892665        -7.41774         0.999232        -7.47275         0.999232        -7.47275        0.0136189         122.838
0.265                 0.00890491        -6.88953         0.999216        -7.62531         0.999216        -7.62531         0.013682         122.319
0.2703                0.00888399        -6.35818           0.9992        -7.77787           0.9992        -7.77787        0.0137454         121.802
0.2756                0.00886388        -5.82378         0.999184        -7.93043         0.999184        -7.93043        0.0138089         121.287
0.2809                0.00884457        -5.28639         0.999168        -8.08299         0.999168        -8.08299        0.0138725         120.773
0.2862                0.00882609        -4.74611         0.999152        -8.23555         0.999152        -8.23555        0.0139364         120.261
0.2915                0.00880845        -4.20299         0.999136        -8.38811         0.999136        -8.38811        0.0140004         119.751
0.2968                0.00879166        -3.65714          0.99912        -8.54067          0.99912        -8.54067        0.0140646         119.243
0.3021                0.00877572        -3.10864         0.999103        -8.69324         0.999103        -8.69324         0.014129         118.737
0.3074                0.00876063        -2.55759         0.999087         -8.8458         0.999087         -8.8458        0.0141936         118.232
0.3127                0.00874641        -2.00406         0.999071        -8.99836         0.999071        -8.99836        0.0142584          117.73
0.318                 0.00873306        -1.44817         0.999055        -9.15092         0.999055        -9.15092        0.0143233         117.228
0.3233                 0.0087206       -0.890013         0.999038        -9.30349         0.999038        -9.30349        0.0143884         116.729
0.3286                0.00870903       -0.329689         0.999022        -9.45605         0.999022        -9.45605        0.0144537         116.231
0.3339                0.00869834        0.232701         0.999006        -9.60862         0.999006        -9.60862        0.0145191         115.735
0.3392                0.00868855        0.797047         0.998989        -9.76118         0.998989        -9.76118        0.0145847          115.24
0.3445                0.00867967         1.36324         0.998973        -9.91375         0.998973        -9.91375        0.0146505         114.747
0.3498                0.00867172         1.93115         0.998956        -10.0663         0.998956        -10.0663        0.0147165         114.256
0.3551                0.00866468         2.50068          0.99894        -10.2189          0.99894        -10.2189        0.0147826         113.766
0.3604                0.00865855         3.07172         0.998923        -10.3714         0.998923        -10.3714        0.0148489         113.278
0.3657                0.00865335         3.64414         0.998906         -10.524         0.998906         -10.524        0.0149154         112.791
0.371                 0.00864909         4.21782          0.99889        -10.6766          0.99889        -10.6766         0.014982         112.306
0.3763                0.00864578         4.79263         0.998873        -10.8291         0.998873        -10.8291        0.0150488         111.822
0.3816                0.00864341         5.36845         0.998856        -10.9817         0.998856        -10.9817        0.0151157          111.34
0.3869                0.00864198         5.94518          0.99884        -11.1343          0.99884        -11.1343        0.0151828         110.859
0.3922                 0.0086415         6.52266         0.998823        -11.2869         0.998823        -11.2869        0.0152501          110.38
0.3975                0.00864197         7.10078         0.998806        -11.4394         0.998806        -11.4394        0.0153176         109.902
0.4028                0.00864343         7.67938         0.998789         -11.592         0.998789         -11.592        0.0153852         109.425
0.4081                0.00864584         8.25836         0.998772        -11.7446         0.998772        -11.7446        0.0154529          108.95
0.4134                 0.0086492          8.8376         0.998755        -11.8971         0.998755        -11.8971        0.0155209         108.476
0.4187                0.00865353         9.41695         0.998738        -12.0497         0.998738        -12.0497         0.015589         108.004
0.424                 0.00865884         9.99628         0.998721        -12.2023         0.998721        -12.2023        0.0156572         107.533
0.4293                0.00866513         10.5754         0.998704        -12.3548         0.998704        -12.3548        0.0157256         107.063
0.4346                0.00867239         11.1543         0.998687        -12.5074         0.998687        -12.5074        0.0157942         106.595
0.4399                0.00868062         11.7328          0.99867          -12.66          0.99867          -12.66        0.0158629         106.128
0.4452                0.00868982         12.3107         0.998653        -12.8126         0.998653        -12.8126        0.0159318         105.662
0.4505                    0.0087          12.888         0.998636        -12.9651         0.998636        -12.9651        0.0160008         105.197
0.4558                0.00871117         13.4644         0.998618        -13.1177         0.998618        -13.1177          0.01607         104.734
0.4611                0.00872332         14.0399         0.998601        -13.2703         0.998601        -13.2703        0.0161394         104.272
0.4664                0.00873644         14.6143         0.998584        -13.4229         0.998584        -13.4229        0.0162089         103.811
0.4717                0.00875053         15.1876         0.998566        -13.5754         0.998566        -13.5754        0.0162786         103.352
0.477                  0.0087656         15.7595         0.998549         -13.728         0.998549         -13.728        0.0163484         102.894
0.4823                0.00878167           16.33         0.998532        -13.8806         0.998532        -13.8806        0.0164184         102.436
0.4876                 0.0087987         16.8989         0.998514        -14.0331         0.998514        -14.0331        0.0164885          101.98
0.4929                 0.0088167         17.4661         0.998497        -14.1857         0.998497        -14.1857        0.0165588         101.526
0.4982                0.00883567         18.0316         0.998479        -14.3383         0.998479        -14.3383        0.0166293         101.072
0.5035                0.00885561         18.5951         0.998462        -14.4909         0.998462        -14.4909        0.0166999          100.62
0.5088                0.00887653         19.1565         0.998444        -14.6435         0.998444        -14.6435        0.0167707         100.168
0.5141                0.00889841         19.7158         0.998426         -14.796         0.998426         -14.796        0.0168416         99.7181
0.5194                0.00892125         20.2729         0.998409        -14.9486         0.998409        -14.9486        0.0169127          99.269
0.5247                0.00894505         20.8276         0.998391        -15.1012         0.998391        -15.1012        0.0169839         98.8209
0.53                   0.0089698         21.3799         0.998373        -15.2538         0.998373        -15.2538        0.0170553          98.374
0.5353                0.00899552         21.9295         0.998355        -15.4063         0.998355        -15.4063        0.0171268         97.9282
0.5406                0.00902218         22.4764         0.998338        -15.5589         0.998338        -15.5589        0.0171985         97.4835
0.5459                0.00904978         23.0206          0.99832        -15.7115          0.99832        -15.7115        0.0172704         97.0397
0.5512                0.00907832          23.562         0.998302        -15.8641         0.998302        -15.8641        0.0173424         96.5971
0.5565                0.00910779         24.1004         0.998284        -16.0167         0.998284        -16.0167        0.0174146         96.1554
0.5618                0.00913821         24.6357         0.998266        -16.1692         0.998266        -16.1692        0.0174869         95.7149
0.5671                0.00916956         25.1679         0.998248        -16.3218         0.998248        -16.3218        0.0175594         95.2753
0.5724                0.00920181         25.6969          0.99823        -16.4744          0.99823        -16.4744         0.017632         94.8367
0.5777                0.00923499         26.2226         0.998212         -16.627         0.998212         -16.627        0.0177048         94.3992
0.583                 0.00926907          26.745         0.998193        -16.7796         0.998193        -16.7796        0.0177778         93.9626
0.5883                0.00930408         27.2638         0.998175        -16.9321         0.998175        -16.9321        0.0178509          93.527
0.5936                0.00933998         27.7792         0.998157        -17.0847         0.998157        -17.0847        0.0179241         93.0924
0.5989                0.00937676         28.2911         0.998139        -17.2373         0.998139        -17.2373        0.0179976         92.6587
0.6042                0.00941444         28.7993         0.998121        -17.3899         0.998121        -17.3899        0.0180711         92.2259
0.6095                  0.009453         29.3038         0.998102        -17.5425         0.998102        -17.5425        0.0181449         91.7942
0.6148                0.00949244         29.8045         0.998084        -17.6951         0.998084        -17.6951        0.0182188         91.3633
0.6201                0.00953276         30.3015         0.998065        -17.8476         0.998065        -17.8476        0.0182928         90.9334
0.6254                0.00957393         30.7946         0.998047        -18.0002         0.998047        -18.0002         0.018367         90.5044
0.6307                0.00961595         31.2838         0.998029        -18.1528         0.998029        -18.1528        0.0184414         90.0763
0.636                 0.00965883         31.7691          0.99801        -18.3054          0.99801        -18.3054        0.0185159         89.6491
0.6413                0.00970256         32.2504         0.997991         -18.458         0.997991         -18.458        0.0185906         89.2229
0.6466                0.00974713         32.7276         0.997973        -18.6106         0.997973        -18.6106        0.0186655         88.7975
0.6519                0.00979252         33.2008         0.997954        -18.7632         0.997954        -18.7632        0.0187405         88.3729
0.6572                0.00983874           33.67         0.997936        -18.9157         0.997936        -18.9157        0.0188157         87.9493
0.6625                0.00988577          34.135         0.997917        -19.0683         0.997917        -19.0683         0.018891         87.5265
0.6678                0.00993362         34.5959         0.997898        -19.2209         0.997898        -19.2209        0.0189665         87.1045
0.6731                0.00998227         35.0526         0.997879        -19.3735         0.997879        -19.3735        0.0190421         86.6835
0.6784                 0.0100317         35.5051         0.997861        -19.5261         0.997861        -19.5261        0.0191179         86.2632
0.6837                 0.0100819         35.9535         0.997842        -19.6787         0.997842        -19.6787        0.0191939         85.8438
0.689                   0.010133         36.3976         0.997823        -19.8313         0.997823        -19.8313          0.01927         85.4252
0.6943                 0.0101848         36.8375         0.997804        -19.9839         0.997804        -19.9839        0.0193463         85.0074
0.6996                 0.0102373         37.2731         0.997785        -20.1365         0.997785        -20.1365        0.0194228         84.5905
0.7049                 0.0102906         37.7045         0.997766         -20.289         0.997766         -20.289        0.0194994         84.1743
0.7102                 0.0103447         38.1317         0.997747        -20.4416         0.997747        -20.4416        0.0195762          83.759
0.7155                 0.0103995         38.5546         0.997728        -20.5942         0.997728        -20.5942        0.0196531         83.3444
0.7208                 0.0104551         38.9732         0.997709        -20.7468         0.997709        -20.7468        0.0197302         82.9307
0.7261                 0.0105114         39.3875         0.997689        -20.8994         0.997689        -20.8994        0.0198075         82.5177
0.7314                 0.0105684         39.7976          0.99767         -21.052          0.99767         -21.052         0.019885         82.1055
0.7367                 0.0106261         40.2035         0.997651        -21.2046         0.997651        -21.2046        0.0199626         81.6941
0.742                  0.0106846         40.6051         0.997632        -21.3572         0.997632        -21.3572        0.0200403         81.2834
0.7473                 0.0107437         41.0025         0.997612        -21.5098         0.997612        -21.5098        0.0201183         80.8736
0.7526                 0.0108036         41.3956         0.997593        -21.6624         0.997593        -21.6624        0.0201964         80.4644
0.7579                 0.0108641         41.7845         0.997574         -21.815         0.997574         -21.815        0.0202746          80.056
0.7632                 0.0109254         42.1692         0.997554        -21.9676         0.997554        -21.9676        0.0203531         79.6484
0.7685                 0.0109872         42.5498         0.997535        -22.1202         0.997535        -22.1202        0.0204317         79.2414
0.7738                 0.0110498         42.9261         0.997515        -22.2728         0.997515        -22.2728        0.0205105         78.8353
0.7791                 0.0111131         43.2982         0.997495        -22.4254         0.997495        -22.4254        0.0205894         78.4298
0.7844                  0.011177         43.6663         0.997476         -22.578         0.997476         -22.578        0.0206685         78.0251
0.7897                 0.0112415         44.0302         0.997456        -22.7306         0.997456        -22.7306        0.0207478          77.621
0.795                  0.0113067           44.39         0.997437        -22.8832         0.997437        -22.8832        0.0208272         77.2177
0.8003                 0.0113725         44.7457         0.997417        -23.0358         0.997417        -23.0358        0.0209069         76.8152
0.8056                  0.011439         45.0973         0.997397        -23.1884         0.997397        -23.1884        0.0209866         76.4133
0.8109                 0.0115061          45.445         0.997377         -23.341         0.997377         -23.341        0.0210666         76.0121
0.8162                 0.0115738         45.7886         0.997357        -23.4935         0.997357        -23.4935        0.0211467         75.6115
0.8215                 0.0116421         46.1282         0.997338        -23.6461         0.997338        -23.6461         0.021227         75.2117
0.8268                  0.011711         46.4639         0.997318        -23.7988         0.997318        -23.7988        0.0213075         74.8126
0.8321                 0.0117806         46.7956         0.997298        -23.9514         0.997298        -23.9514        0.0213882         74.4141
0.8374                 0.0118507         47.1234         0.997278         -24.104         0.997278         -24.104         0.021469         74.0164
0.8427                 0.0119214         47.4474         0.997258        -24.2566         0.997258        -24.2566          0.02155         73.6192
0.848                  0.0119927         47.7675         0.997238        -24.4092         0.997238        -24.4092        0.0216311         73.2228
0.8533                 0.0120645         48.0837         0.997217        -24.5618         0.997217        -24.5618        0.0217125          72.827
0.8586                  0.012137         48.3961         0.997197        -24.7144         0.997197        -24.7144         0.021794         72.4319
0.8639                   0.01221         48.7049         0.997177         -24.867         0.997177         -24.867        0.0218757         72.0374
0.8692                 0.0122835         49.0099         0.997157        -25.0196         0.997157        -25.0196        0.0219576         71.6436
0.8745                 0.0123577         49.3112         0.997137        -25.1722         0.997137        -25.1722        0.0220396         71.2504
0.8798                 0.0124323         49.6087         0.997116        -25.3248         0.997116        -25.3248        0.0221219         70.8579
0.8851                 0.0125076         49.9027         0.997096        -25.4774         0.997096        -25.4774        0.0222043          70.466
0.8904                 0.0125833         50.1931         0.997075          -25.63         0.997075          -25.63        0.0222868         70.0747
0.8957                 0.0126596         50.4799         0.997055        -25.7826         0.997055        -25.7826        0.0223696         69.6841
0.901                  0.0127364         50.7631         0.997035        -25.9352         0.997035        -25.9352        0.0224525         69.2941
0.9063                 0.0128137         51.0428         0.997014        -26.0878         0.997014        -26.0878        0.0225356         68.9047
0.9116                 0.0128916         51.3191         0.996993        -26.2404         0.996993        -26.2404        0.0226189          68.516
0.9169                   0.01297         51.5919         0.996973         -26.393         0.996973         -26.393        0.0227024         68.1278
0.9222                 0.0130488         51.8613         0.996952        -26.5456         0.996952        -26.5456        0.0227861         67.7403
0.9275                 0.0131282         52.1274         0.996931        -26.6982         0.996931        -26.6982        0.0228699         67.3534
0.9328                 0.0132081           52.39         0.996911        -26.8509         0.996911        -26.8509        0.0229539         66.9671
0.9381                 0.0132885         52.6494          0.99689        -27.0035          0.99689        -27.0035        0.0230381         66.5814
0.9434                 0.0133693         52.9055         0.996869        -27.1561         0.996869        -27.1561        0.0231225         66.1963
0.9487                 0.0134507         53.1583         0.996848        -27.3087         0.996848        -27.3087        0.0232071         65.8117
0.954                  0.0135325          53.408         0.996827        -27.4613         0.996827        -27.4613        0.0232918         65.4278
0.9593                 0.0136148         53.6544         0.996806        -27.6139         0.996806        -27.6139        0.0233767         65.0445
0.9646                 0.0136976         53.8976         0.996786        -27.7665         0.996786        -27.7665        0.0234619         64.6618
0.9699                 0.0137809         54.1378         0.996764        -27.9191         0.996764        -27.9191        0.0235472         64.2796
0.9752                 0.0138646          54.375         0.996743        -28.0717         0.996743        -28.0717        0.0236326          63.898
0.9805                 0.0139487          54.609         0.996722        -28.2244         0.996722        -28.2244        0.0237183          63.517
0.9858                 0.0140334           54.84         0.996701         -28.377         0.996701         -28.377        0.0238042         63.1366
0.9911                 0.0141184          55.068          0.99668        -28.5296          0.99668        -28.5296        0.0238902         62.7568
0.9964                  0.014204         55.2931         0.996659        -28.6822         0.996659        -28.6822        0.0239764         62.3775