! TOUCHSTONE file generated by CST MICROWAVE STUDIO
! Date and time: Tue Jan  7 09:43:06 2020
! Project name: OSHPark_FR408_Transition2.cst
! Parameters = {GND_Plane_XMax=12; Cap_Disk_XOffset=0; Cap_Disk2_YCenter=-1.03; Cap_Disk_YCenter=1.03; Cap_Disk_XCenter=7.39; Cap_Disk_Radius=0.5; BottomSupport_Left_YMax=4.76; BottomSupport_Left_YMin=3.74; BottomSupport_Right_YMax=-3.74; BottomSupport_Right_YMin=-4.76; BottomSupport_XMax=11.64; BottomSupport_XMin=6.89; BottomSupport_ZMax=-1.64084; BottomSupport_ZMin=-3.58; Cu1_Thickness=0.03556; Cu2_Thickness=0.01778; Fr408Core_Thickness=1.1938; GND_Plane_Offset=2.8; PCBThickness=1.6256; Prepreg1_Zmin=-0.20574; Prepreg_Thickness=0.17018; RFTraceYMax=0.17145; RFTrace_XMax=15; RFTrace_XMin=11.46; RFTrace_YMin=-0.17145; SMA_CenterCond_Inner_XMax=11.64; SMA_CenterCond_Radius=0.6; SMA_Dielectric_InnerRadius=0.6; SMA_Dielectric_OuterRadius=2; SMA_Dielectric_XMax=5.62; SMA_Dielectric_XMin=0; SMA_Dielectric_YCenter=0; SMA_Dielectric_ZCenter=0; SMA_Footprint_Center_XMax=12.49; SMA_Footprint_Center_XMin=7.74; SMA_Footprint_Center_YMax=0.75; SMA_Footprint_Center_YMin=-0.75; SMA_OuterCond_InnerRadius=2; SMA_OuterCond_OuterRadius=3; SMA_OuterCond_XMax=6.89; SMA_XMax=6.67; SMA_XMin=0; SMA_YCenter=0; SMA_ZCenter=0; TopSupport_ZMax=1.02; TopSupport_ZMin=0; Via1_XCenter=7.5; Via1_YCenter=-4.25; Via2_XCenter=8.75; Via2_YCenter=-4.25; Via3_XCenter=10; Via3_YCenter=-4.25; Via4_XCenter=11.25; Via4_YCenter=-4.25; Via5_XCenter=7.5; Via5_YCenter=4.25; Via6_XCenter=8.75; Via6_YCenter=4.25; Via7_XCenter=10; Via7_YCenter=4.25; Via8_XCenter=11.25; Via8_YCenter=4.25; ViaInnerRadius=0; ViaOuterRadius=0.381}
! Header version: 2015
! Port assignment regex: !\s*Touchstone port\s*([0-9]+)\s*=\s*CST MWS port\s*([0-9]+)\s*\(\"(.*)\"\)(\s*mode\s*([0-9]+))?.*
! Touchstone port assignment:
! Touchstone port 1 = CST MWS port 1 ("")
! Touchstone port 2 = CST MWS port 2 ("")
# GHz S MA R 50
0                       0.241388               0         0.765642               0         0.765642               0         0.227285               0
0.0053                 0.0122114        -23.9518         0.999937       -0.158841         0.999937       -0.158841        0.0123743         154.435
0.0106                 0.0122407        -24.4386         0.999922       -0.305514         0.999922       -0.305514        0.0123388         154.612
0.0159                 0.0122502        -24.6627         0.999907       -0.455617         0.999907       -0.455617         0.012334         154.547
0.0212                 0.0122525        -24.8259         0.999892       -0.606579         0.999892       -0.606579        0.0123346         154.415
0.0265                 0.0122512        -24.9663         0.999877       -0.757885         0.999877       -0.757885        0.0123367         154.255
0.0318                 0.0122493        -25.0926         0.999862       -0.909362         0.999862       -0.909362        0.0123407         154.084
0.0371                 0.0122457         -25.214         0.999847        -1.06094         0.999847        -1.06094        0.0123443         153.903
0.0424                 0.0122388         -25.337         0.999832        -1.21258         0.999832        -1.21258        0.0123455         153.712
0.0477                 0.0122325         -25.455         0.999817        -1.36425         0.999817        -1.36425        0.0123479          153.52
0.053                   0.012227        -25.5689         0.999802        -1.51596         0.999802        -1.51596        0.0123514         153.327
0.0583                 0.0122225        -25.6783         0.999787        -1.66769         0.999787        -1.66769        0.0123563         153.135
0.0636                 0.0122175        -25.7877         0.999772        -1.81943         0.999772        -1.81943        0.0123608         152.941
0.0689                 0.0122119         -25.897         0.999757        -1.97118         0.999757        -1.97118         0.012365         152.746
0.0742                 0.0122062        -26.0059         0.999742        -2.12295         0.999742        -2.12295         0.012369         152.549
0.0795                 0.0122004        -26.1141         0.999727        -2.27472         0.999727        -2.27472        0.0123731         152.352
0.0848                 0.0121947        -26.2215         0.999711         -2.4265         0.999711         -2.4265        0.0123773         152.154
0.0901                 0.0121889        -26.3287         0.999696        -2.57828         0.999696        -2.57828        0.0123814         151.956
0.0954                  0.012183        -26.4356         0.999681        -2.73007         0.999681        -2.73007        0.0123855         151.757
0.1007                  0.012177        -26.5422         0.999666        -2.88186         0.999666        -2.88186        0.0123895         151.557
0.106                   0.012171        -26.6486         0.999651        -3.03365         0.999651        -3.03365        0.0123935         151.358
0.1113                  0.012165        -26.7546         0.999635        -3.18545         0.999635        -3.18545        0.0123975         151.158
0.1166                  0.012159        -26.8605          0.99962        -3.33725          0.99962        -3.33725        0.0124015         150.958
0.1219                 0.0121528        -26.9663         0.999605        -3.48905         0.999605        -3.48905        0.0124054         150.757
0.1272                 0.0121467        -27.0719         0.999589        -3.64085         0.999589        -3.64085        0.0124092         150.556
0.1325                 0.0121405        -27.1773         0.999574        -3.79265         0.999574        -3.79265         0.012413         150.355
0.1378                 0.0121343        -27.2826         0.999559        -3.94446         0.999559        -3.94446        0.0124168         150.154
0.1431                  0.012128        -27.3878         0.999543        -4.09627         0.999543        -4.09627        0.0124205         149.953
0.1484                 0.0121218        -27.4928         0.999528        -4.24807         0.999528        -4.24807        0.0124242         149.751
0.1537                 0.0121154        -27.5977         0.999512        -4.39988         0.999512        -4.39988        0.0124278         149.549
0.159                  0.0121091        -27.7026         0.999497        -4.55169         0.999497        -4.55169        0.0124314         149.347
0.1643                 0.0121027        -27.8072         0.999481         -4.7035         0.999481         -4.7035        0.0124349         149.144
0.1696                 0.0120963        -27.9118         0.999466        -4.85531         0.999466        -4.85531        0.0124384         148.941
0.1749                 0.0120898        -28.0163          0.99945        -5.00712          0.99945        -5.00712        0.0124418         148.739
0.1802                 0.0120833        -28.1207         0.999435        -5.15893         0.999435        -5.15893        0.0124452         148.536
0.1855                 0.0120768         -28.225         0.999419        -5.31075         0.999419        -5.31075        0.0124485         148.332
0.1908                 0.0120703        -28.3291         0.999404        -5.46256         0.999404        -5.46256        0.0124518         148.129
0.1961                 0.0120637        -28.4332         0.999388        -5.61437         0.999388        -5.61437        0.0124551         147.925
0.2014                 0.0120571        -28.5371         0.999372        -5.76619         0.999372        -5.76619        0.0124582         147.721
0.2067                 0.0120505         -28.641         0.999357          -5.918         0.999357          -5.918        0.0124614         147.517
0.212                  0.0120438        -28.7447         0.999341        -6.06982         0.999341        -6.06982        0.0124644         147.313
0.2173                 0.0120371        -28.8484         0.999325        -6.22163         0.999325        -6.22163        0.0124675         147.108
0.2226                 0.0120304        -28.9519         0.999309        -6.37345         0.999309        -6.37345        0.0124705         146.903
0.2279                 0.0120237        -29.0553         0.999294        -6.52526         0.999294        -6.52526        0.0124734         146.698
0.2332                 0.0120169        -29.1587         0.999278        -6.67708         0.999278        -6.67708        0.0124763         146.493
0.2385                 0.0120101        -29.2619         0.999262        -6.82889         0.999262        -6.82889        0.0124791         146.288
0.2438                 0.0120032         -29.365         0.999246        -6.98071         0.999246        -6.98071        0.0124819         146.082
0.2491                 0.0119964        -29.4679          0.99923        -7.13253          0.99923        -7.13253        0.0124846         145.877
0.2544                 0.0119894        -29.5708         0.999214        -7.28434         0.999214        -7.28434        0.0124873         145.671
0.2597                 0.0119825        -29.6736         0.999198        -7.43616         0.999198        -7.43616          0.01249         145.464
0.265                  0.0119755        -29.7762         0.999182        -7.58798         0.999182        -7.58798        0.0124925         145.258
0.2703                 0.0119685        -29.8787         0.999166         -7.7398         0.999166         -7.7398        0.0124951         145.051
0.2756                 0.0119615        -29.9811          0.99915        -7.89161          0.99915        -7.89161        0.0124976         144.844
0.2809                 0.0119545        -30.0833         0.999134        -8.04343         0.999134        -8.04343        0.0125001         144.637
0.2862                 0.0119474        -30.1854         0.999118        -8.19525         0.999118        -8.19525        0.0125025          144.43
0.2915                 0.0119402        -30.2875         0.999102        -8.34707         0.999102        -8.34707        0.0125048         144.223
0.2968                 0.0119331        -30.3893         0.999086        -8.49888         0.999086        -8.49888        0.0125071         144.015
0.3021                 0.0119259         -30.491          0.99907         -8.6507          0.99907         -8.6507        0.0125094         143.807
0.3074                 0.0119187        -30.5926         0.999054        -8.80252         0.999054        -8.80252        0.0125116         143.599
0.3127                 0.0119115        -30.6941         0.999038        -8.95434         0.999038        -8.95434        0.0125138          143.39
0.318                  0.0119042        -30.7954         0.999022        -9.10616         0.999022        -9.10616        0.0125159         143.182
0.3233                 0.0118969        -30.8965         0.999005        -9.25798         0.999005        -9.25798         0.012518         142.973
0.3286                 0.0118895        -30.9975         0.998989         -9.4098         0.998989         -9.4098          0.01252         142.764
0.3339                 0.0118822        -31.0984         0.998973        -9.56162         0.998973        -9.56162         0.012522         142.555
0.3392                 0.0118748        -31.1991         0.998957        -9.71344         0.998957        -9.71344         0.012524         142.345
0.3445                 0.0118673        -31.2997          0.99894        -9.86525          0.99894        -9.86525        0.0125259         142.135
0.3498                 0.0118599        -31.4001         0.998924        -10.0171         0.998924        -10.0171        0.0125277         141.925
0.3551                 0.0118524        -31.5003         0.998908        -10.1689         0.998908        -10.1689        0.0125295         141.715
0.3604                 0.0118448        -31.6004         0.998891        -10.3207         0.998891        -10.3207        0.0125313         141.505
0.3657                 0.0118373        -31.7003         0.998875        -10.4725         0.998875        -10.4725         0.012533         141.294
0.371                  0.0118297           -31.8         0.998858        -10.6244         0.998858        -10.6244        0.0125347         141.083
0.3763                  0.011822        -31.8996         0.998842        -10.7762         0.998842        -10.7762        0.0125364         140.872
0.3816                 0.0118144        -31.9989         0.998825         -10.928         0.998825         -10.928         0.012538          140.66
0.3869                 0.0118067        -32.0982         0.998809        -11.0798         0.998809        -11.0798        0.0125396         140.449
0.3922                  0.011799        -32.1972         0.998792        -11.2316         0.998792        -11.2316        0.0125411         140.237
0.3975                 0.0117912        -32.2961         0.998776        -11.3835         0.998776        -11.3835        0.0125426         140.025
0.4028                 0.0117834        -32.3947         0.998759        -11.5353         0.998759        -11.5353         0.012544         139.812
0.4081                 0.0117756        -32.4932         0.998743        -11.6871         0.998743        -11.6871        0.0125454           139.6
0.4134                 0.0117677        -32.5914         0.998726        -11.8389         0.998726        -11.8389        0.0125468         139.387
0.4187                 0.0117599        -32.6895         0.998709        -11.9907         0.998709        -11.9907        0.0125481         139.173
0.424                  0.0117519        -32.7874         0.998693        -12.1426         0.998693        -12.1426        0.0125494          138.96
0.4293                  0.011744        -32.8851         0.998676        -12.2944         0.998676        -12.2944        0.0125506         138.746
0.4346                  0.011736        -32.9825         0.998659        -12.4462         0.998659        -12.4462        0.0125519         138.532
0.4399                  0.011728        -33.0798         0.998643         -12.598         0.998643         -12.598         0.012553         138.318
0.4452                 0.0117199        -33.1769         0.998626        -12.7498         0.998626        -12.7498        0.0125541         138.104
0.4505                 0.0117118        -33.2737         0.998609        -12.9017         0.998609        -12.9017        0.0125552         137.889
0.4558                 0.0117037        -33.3703         0.998592        -13.0535         0.998592        -13.0535        0.0125563         137.674
0.4611                 0.0116956        -33.4667         0.998575        -13.2053         0.998575        -13.2053        0.0125573         137.459
0.4664                 0.0116874        -33.5629         0.998558        -13.3571         0.998558        -13.3571        0.0125583         137.243
0.4717                 0.0116792        -33.6589         0.998542        -13.5089         0.998542        -13.5089        0.0125593         137.027
0.477                  0.0116709        -33.7546         0.998525        -13.6608         0.998525        -13.6608        0.0125602         136.811
0.4823                 0.0116626        -33.8501         0.998508        -13.8126         0.998508        -13.8126        0.0125611         136.595
0.4876                 0.0116543        -33.9453         0.998491        -13.9644         0.998491        -13.9644        0.0125619         136.378
0.4929                  0.011646        -34.0404         0.998474        -14.1162         0.998474        -14.1162        0.0125627         136.161
0.4982                 0.0116376        -34.1352         0.998457        -14.2681         0.998457        -14.2681        0.0125635         135.944
0.5035                 0.0116292        -34.2297          0.99844        -14.4199          0.99844        -14.4199        0.0125643         135.726
0.5088                 0.0116207         -34.324         0.998423        -14.5717         0.998423        -14.5717         0.012565         135.509
0.5141                 0.0116122         -34.418         0.998406        -14.7235         0.998406        -14.7235        0.0125657         135.291
0.5194                 0.0116037        -34.5118         0.998388        -14.8753         0.998388        -14.8753        0.0125663         135.072
0.5247                 0.0115952        -34.6053         0.998371        -15.0272         0.998371        -15.0272         0.012567         134.854
0.53                   0.0115866        -34.6986         0.998354         -15.179         0.998354         -15.179        0.0125675         134.635
0.5353                  0.011578        -34.7915         0.998337        -15.3308         0.998337        -15.3308        0.0125681         134.415
0.5406                 0.0115693        -34.8842          0.99832        -15.4826          0.99832        -15.4826        0.0125686         134.196
0.5459                 0.0115606        -34.9767         0.998303        -15.6345         0.998303        -15.6345        0.0125691         133.976
0.5512                 0.0115519        -35.0689         0.998285        -15.7863         0.998285        -15.7863        0.0125696         133.756
0.5565                 0.0115431        -35.1608         0.998268        -15.9381         0.998268        -15.9381          0.01257         133.535
0.5618                 0.0115343        -35.2524         0.998251        -16.0899         0.998251        -16.0899        0.0125705         133.315
0.5671                 0.0115255        -35.3437         0.998233        -16.2417         0.998233        -16.2417        0.0125708         133.094
0.5724                 0.0115167        -35.4347         0.998216        -16.3936         0.998216        -16.3936        0.0125712         132.872
0.5777                 0.0115078        -35.5255         0.998199        -16.5454         0.998199        -16.5454        0.0125715         132.651
0.583                  0.0114989         -35.616         0.998181        -16.6972         0.998181        -16.6972        0.0125718         132.429
0.5883                 0.0114899        -35.7061         0.998164         -16.849         0.998164         -16.849        0.0125721         132.207
0.5936                 0.0114809        -35.7959         0.998146        -17.0009         0.998146        -17.0009        0.0125724         131.984
0.5989                 0.0114719        -35.8855         0.998129        -17.1527         0.998129        -17.1527        0.0125726         131.761
0.6042                 0.0114628        -35.9747         0.998112        -17.3045         0.998112        -17.3045        0.0125728         131.538
0.6095                 0.0114537        -36.0636         0.998094        -17.4563         0.998094        -17.4563         0.012573         131.314
0.6148                 0.0114446        -36.1522         0.998076        -17.6081         0.998076        -17.6081        0.0125731         131.091
0.6201                 0.0114355        -36.2405         0.998059          -17.76         0.998059          -17.76        0.0125733         130.866
0.6254                 0.0114263        -36.3284         0.998041        -17.9118         0.998041        -17.9118        0.0125734         130.642
0.6307                  0.011417        -36.4161         0.998024        -18.0636         0.998024        -18.0636        0.0125735         130.417
0.636                  0.0114078        -36.5034         0.998006        -18.2154         0.998006        -18.2154        0.0125735         130.192
0.6413                 0.0113985        -36.5903         0.997988        -18.3673         0.997988        -18.3673        0.0125736         129.967
0.6466                 0.0113892        -36.6769         0.997971        -18.5191         0.997971        -18.5191        0.0125736         129.741
0.6519                 0.0113798        -36.7632         0.997953        -18.6709         0.997953        -18.6709        0.0125736         129.515
0.6572                 0.0113704        -36.8491         0.997935        -18.8227         0.997935        -18.8227        0.0125736         129.288
0.6625                  0.011361        -36.9347         0.997918        -18.9746         0.997918        -18.9746        0.0125735         129.062
0.6678                 0.0113515        -37.0199           0.9979        -19.1264           0.9979        -19.1264        0.0125735         128.835
0.6731                  0.011342        -37.1048         0.997882        -19.2782         0.997882        -19.2782        0.0125734         128.607
0.6784                 0.0113325        -37.1893         0.997864          -19.43         0.997864          -19.43        0.0125733         128.379
0.6837                  0.011323        -37.2734         0.997846        -19.5819         0.997846        -19.5819        0.0125732         128.151
0.689                  0.0113134        -37.3572         0.997828        -19.7337         0.997828        -19.7337        0.0125731         127.923
0.6943                 0.0113038        -37.4406         0.997811        -19.8855         0.997811        -19.8855        0.0125729         127.694
0.6996                 0.0112941        -37.5236         0.997793        -20.0373         0.997793        -20.0373        0.0125728         127.465
0.7049                 0.0112844        -37.6062         0.997775        -20.1892         0.997775        -20.1892        0.0125726         127.235
0.7102                 0.0112747        -37.6885         0.997757         -20.341         0.997757         -20.341        0.0125724         127.006
0.7155                 0.0112649        -37.7703         0.997739        -20.4928         0.997739        -20.4928        0.0125722         126.775
0.7208                 0.0112552        -37.8518         0.997721        -20.6446         0.997721        -20.6446         0.012572         126.545
0.7261                 0.0112453        -37.9328         0.997703        -20.7964         0.997703        -20.7964        0.0125717         126.314
0.7314                 0.0112355        -38.0135         0.997685        -20.9483         0.997685        -20.9483        0.0125715         126.083
0.7367                 0.0112256        -38.0938         0.997667        -21.1001         0.997667        -21.1001        0.0125712         125.851
0.742                  0.0112157        -38.1736         0.997648        -21.2519         0.997648        -21.2519         0.012571         125.619
0.7473                 0.0112058        -38.2531          0.99763        -21.4037          0.99763        -21.4037        0.0125707         125.387
0.7526                 0.0111958        -38.3321         0.997612        -21.5556         0.997612        -21.5556        0.0125704         125.155
0.7579                 0.0111858        -38.4107         0.997594        -21.7074         0.997594        -21.7074        0.0125701         124.922
0.7632                 0.0111757        -38.4889         0.997576        -21.8592         0.997576        -21.8592        0.0125698         124.688
0.7685                 0.0111657        -38.5666         0.997558         -22.011         0.997558         -22.011        0.0125695         124.455
0.7738                 0.0111556        -38.6439         0.997539        -22.1629         0.997539        -22.1629        0.0125692          124.22
0.7791                 0.0111455        -38.7208         0.997521        -22.3147         0.997521        -22.3147        0.0125688         123.986
0.7844                 0.0111353        -38.7972         0.997503        -22.4665         0.997503        -22.4665        0.0125685         123.751
0.7897                 0.0111251        -38.8732         0.997484        -22.6184         0.997484        -22.6184        0.0125681         123.516
0.795                  0.0111149        -38.9488         0.997466        -22.7702         0.997466        -22.7702        0.0125678         123.281
0.8003                 0.0111046        -39.0238         0.997448         -22.922         0.997448         -22.922        0.0125674         123.045
0.8056                 0.0110943        -39.0985         0.997429        -23.0738         0.997429        -23.0738        0.0125671         122.808
0.8109                  0.011084        -39.1726         0.997411        -23.2257         0.997411        -23.2257        0.0125667         122.572
0.8162                 0.0110737        -39.2463         0.997392        -23.3775         0.997392        -23.3775        0.0125663         122.335
0.8215                 0.0110633        -39.3196         0.997374        -23.5293         0.997374        -23.5293        0.0125659         122.097
0.8268                 0.0110529        -39.3923         0.997355        -23.6811         0.997355        -23.6811        0.0125656          121.86
0.8321                 0.0110425        -39.4646         0.997337         -23.833         0.997337         -23.833        0.0125652         121.621
0.8374                  0.011032        -39.5363         0.997318        -23.9848         0.997318        -23.9848        0.0125648         121.383
0.8427                 0.0110216        -39.6076           0.9973        -24.1366           0.9973        -24.1366        0.0125644         121.144
0.848                   0.011011        -39.6785         0.997281        -24.2884         0.997281        -24.2884        0.0125641         120.905
0.8533                 0.0110005        -39.7487         0.997263        -24.4403         0.997263        -24.4403        0.0125637         120.665
0.8586                 0.0109899        -39.8185         0.997244        -24.5921         0.997244        -24.5921        0.0125633         120.425
0.8639                 0.0109793        -39.8878         0.997225        -24.7439         0.997225        -24.7439        0.0125629         120.185
0.8692                 0.0109687        -39.9566         0.997207        -24.8957         0.997207        -24.8957        0.0125626         119.944
0.8745                 0.0109581        -40.0249         0.997188        -25.0476         0.997188        -25.0476        0.0125622         119.702
0.8798                 0.0109474        -40.0926         0.997169        -25.1994         0.997169        -25.1994        0.0125618         119.461
0.8851                 0.0109367        -40.1598         0.997151        -25.3512         0.997151        -25.3512        0.0125615         119.219
0.8904                 0.0109259        -40.2265         0.997132        -25.5031         0.997132        -25.5031        0.0125611         118.977
0.8957                 0.0109152        -40.2927         0.997113        -25.6549         0.997113        -25.6549        0.0125607         118.734
0.901                  0.0109044        -40.3583         0.997094        -25.8067         0.997094        -25.8067        0.0125604         118.491
0.9063                 0.0108936        -40.4234         0.997075        -25.9585         0.997075        -25.9585        0.0125601         118.247
0.9116                 0.0108828        -40.4879         0.997056        -26.1104         0.997056        -26.1104        0.0125597         118.003
0.9169                 0.0108719        -40.5518         0.997038        -26.2622         0.997038        -26.2622        0.0125594         117.759
0.9222                  0.010861        -40.6153         0.997019         -26.414         0.997019         -26.414        0.0125591         117.514
0.9275                 0.0108501        -40.6781            0.997        -26.5658            0.997        -26.5658        0.0125588         117.269
0.9328                 0.0108392        -40.7404         0.996981        -26.7177         0.996981        -26.7177        0.0125585         117.023
0.9381                 0.0108282        -40.8021         0.996962        -26.8695         0.996962        -26.8695        0.0125582         116.777
0.9434                 0.0108172        -40.8632         0.996943        -27.0213         0.996943        -27.0213        0.0125579         116.531
0.9487                 0.0108062        -40.9238         0.996924        -27.1732         0.996924        -27.1732        0.0125577         116.284
0.954                  0.0107952        -40.9838         0.996905         -27.325         0.996905         -27.325        0.0125574         116.037
0.9593                 0.0107842        -41.0431         0.996886        -27.4768         0.996886        -27.4768        0.0125572          115.79
0.9646                 0.0107731        -41.1019         0.996866        -27.6286         0.996866        -27.6286         0.012557         115.542
0.9699                  0.010762        -41.1601         0.996847        -27.7805         0.996847        -27.7805        0.0125568         115.293
0.9752                 0.0107509        -41.2177         0.996828        -27.9323         0.996828        -27.9323        0.0125566         115.045
0.9805                 0.0107398        -41.2747         0.996809        -28.0841         0.996809        -28.0841        0.0125564         114.796
0.9858                 0.0107286         -41.331          0.99679         -28.236          0.99679         -28.236        0.0125563         114.546
0.9911                 0.0107174        -41.3867         0.996771        -28.3878         0.996771        -28.3878        0.0125561         114.296
0.9964                 0.0107062        -41.4418         0.996751        -28.5396         0.996751        -28.5396         0.012556         114.046