! TOUCHSTONE file generated by CST MICROWAVE STUDIO
! Date and time: Tue Jan  7 09:43:43 2020
! Project name: OSHPark_FR408_Transition2.cst
! Parameters = {GND_Plane_XMax=13; Cap_Disk_XOffset=0; Cap_Disk2_YCenter=-1.03; Cap_Disk_YCenter=1.03; Cap_Disk_XCenter=7.39; Cap_Disk_Radius=0.5; BottomSupport_Left_YMax=4.76; BottomSupport_Left_YMin=3.74; BottomSupport_Right_YMax=-3.74; BottomSupport_Right_YMin=-4.76; BottomSupport_XMax=11.64; BottomSupport_XMin=6.89; BottomSupport_ZMax=-1.64084; BottomSupport_ZMin=-3.58; Cu1_Thickness=0.03556; Cu2_Thickness=0.01778; Fr408Core_Thickness=1.1938; GND_Plane_Offset=2.875; PCBThickness=1.6256; Prepreg1_Zmin=-0.20574; Prepreg_Thickness=0.17018; RFTraceYMax=0.17145; RFTrace_XMax=15; RFTrace_XMin=11.46; RFTrace_YMin=-0.17145; SMA_CenterCond_Inner_XMax=11.64; SMA_CenterCond_Radius=0.6; SMA_Dielectric_InnerRadius=0.6; SMA_Dielectric_OuterRadius=2; SMA_Dielectric_XMax=5.62; SMA_Dielectric_XMin=0; SMA_Dielectric_YCenter=0; SMA_Dielectric_ZCenter=0; SMA_Footprint_Center_XMax=12.49; SMA_Footprint_Center_XMin=7.74; SMA_Footprint_Center_YMax=0.75; SMA_Footprint_Center_YMin=-0.75; SMA_OuterCond_InnerRadius=2; SMA_OuterCond_OuterRadius=3; SMA_OuterCond_XMax=6.89; SMA_XMax=6.67; SMA_XMin=0; SMA_YCenter=0; SMA_ZCenter=0; TopSupport_ZMax=1.02; TopSupport_ZMin=0; Via1_XCenter=7.5; Via1_YCenter=-4.25; Via2_XCenter=8.75; Via2_YCenter=-4.25; Via3_XCenter=10; Via3_YCenter=-4.25; Via4_XCenter=11.25; Via4_YCenter=-4.25; Via5_XCenter=7.5; Via5_YCenter=4.25; Via6_XCenter=8.75; Via6_YCenter=4.25; Via7_XCenter=10; Via7_YCenter=4.25; Via8_XCenter=11.25; Via8_YCenter=4.25; ViaInnerRadius=0; ViaOuterRadius=0.381}
! Header version: 2015
! Port assignment regex: !\s*Touchstone port\s*([0-9]+)\s*=\s*CST MWS port\s*([0-9]+)\s*\(\"(.*)\"\)(\s*mode\s*([0-9]+))?.*
! Touchstone port assignment:
! Touchstone port 1 = CST MWS port 1 ("")
! Touchstone port 2 = CST MWS port 2 ("")
# GHz S MA R 50
0                      0.0118876               0         0.999943               0         0.999943               0         0.011887             180
0.0053                 0.0128772        -22.3581         0.999899       -0.159788         0.999899       -0.159788        0.0130787         154.927
0.0106                 0.0128425        -22.4142         0.999915       -0.306485         0.999915       -0.306485        0.0131239         154.718
0.0159                 0.0127989        -22.1352         0.999897       -0.457415         0.999897       -0.457415        0.0131557         154.123
0.0212                 0.0127529        -21.7849         0.999878       -0.609232         0.999878       -0.609232        0.0131964         153.471
0.0265                 0.0127081        -21.4032          0.99986       -0.761378          0.99986       -0.761378        0.0132432         152.806
0.0318                 0.0126607         -21.011         0.999841       -0.913683         0.999841       -0.913683        0.0132902         152.129
0.0371                 0.0126159        -20.6041         0.999823        -1.06608         0.999823        -1.06608        0.0133412         151.455
0.0424                  0.012579        -20.1764         0.999805        -1.21852         0.999805        -1.21852        0.0134006         150.797
0.0477                 0.0125399        -19.7477         0.999787          -1.371         0.999787          -1.371        0.0134583         150.135
0.053                  0.0124989        -19.3184         0.999769        -1.52351         0.999769        -1.52351        0.0135144         149.469
0.0583                  0.012455        -18.8905         0.999751        -1.67604         0.999751        -1.67604        0.0135681         148.799
0.0636                 0.0124131        -18.4564         0.999733        -1.82858         0.999733        -1.82858        0.0136236         148.133
0.0689                 0.0123729        -18.0167         0.999715        -1.98113         0.999715        -1.98113        0.0136809         147.472
0.0742                 0.0123338        -17.5729         0.999697        -2.13369         0.999697        -2.13369         0.013739         146.814
0.0795                 0.0122953        -17.1257         0.999679        -2.28625         0.999679        -2.28625        0.0137976         146.159
0.0848                 0.0122573        -16.6755         0.999661        -2.43882         0.999661        -2.43882        0.0138566         145.506
0.0901                 0.0122201        -16.2219         0.999643        -2.59139         0.999643        -2.59139        0.0139162         144.857
0.0954                  0.012184        -15.7649         0.999625        -2.74396         0.999625        -2.74396        0.0139764          144.21
0.1007                 0.0121486        -15.3046         0.999607        -2.89654         0.999607        -2.89654        0.0140373         143.567
0.106                  0.0121141        -14.8413         0.999589        -3.04912         0.999589        -3.04912        0.0140986         142.927
0.1113                 0.0120804         -14.375         0.999571         -3.2017         0.999571         -3.2017        0.0141605         142.289
0.1166                 0.0120476        -13.9056         0.999553        -3.35428         0.999553        -3.35428        0.0142229         141.655
0.1219                 0.0120157        -13.4333         0.999535        -3.50686         0.999535        -3.50686        0.0142858         141.024
0.1272                 0.0119847        -12.9581         0.999517        -3.65944         0.999517        -3.65944        0.0143492         140.396
0.1325                 0.0119546        -12.4802         0.999498        -3.81202         0.999498        -3.81202        0.0144132         139.771
0.1378                 0.0119254        -11.9994          0.99948        -3.96461          0.99948        -3.96461        0.0144776         139.149
0.1431                 0.0118972         -11.516         0.999462        -4.11719         0.999462        -4.11719        0.0145425         138.529
0.1484                 0.0118699          -11.03         0.999444        -4.26978         0.999444        -4.26978        0.0146079         137.913
0.1537                 0.0118435        -10.5415         0.999426        -4.42236         0.999426        -4.42236        0.0146738           137.3
0.159                  0.0118181        -10.0504         0.999407        -4.57495         0.999407        -4.57495        0.0147401          136.69
0.1643                 0.0117936        -9.55695         0.999389        -4.72753         0.999389        -4.72753        0.0148069         136.083
0.1696                 0.0117701        -9.06115         0.999371        -4.88011         0.999371        -4.88011        0.0148742         135.478
0.1749                 0.0117476        -8.56307         0.999352         -5.0327         0.999352         -5.0327        0.0149419         134.877
0.1802                 0.0117261         -8.0628         0.999334        -5.18528         0.999334        -5.18528          0.01501         134.278
0.1855                 0.0117055        -7.56041         0.999315        -5.33787         0.999315        -5.33787        0.0150786         133.683
0.1908                  0.011686        -7.05597         0.999297        -5.49045         0.999297        -5.49045        0.0151475          133.09
0.1961                 0.0116675        -6.54956         0.999279        -5.64303         0.999279        -5.64303         0.015217           132.5
0.2014                 0.0116499        -6.04128          0.99926        -5.79561          0.99926        -5.79561        0.0152868         131.912
0.2067                 0.0116334        -5.53119         0.999242         -5.9482         0.999242         -5.9482         0.015357         131.328
0.212                  0.0116179        -5.01938         0.999223        -6.10078         0.999223        -6.10078        0.0154277         130.746
0.2173                 0.0116035        -4.50594         0.999204        -6.25336         0.999204        -6.25336        0.0154987         130.167
0.2226                   0.01159        -3.99095         0.999186        -6.40594         0.999186        -6.40594        0.0155701         129.591
0.2279                 0.0115776        -3.47451         0.999167        -6.55852         0.999167        -6.55852         0.015642         129.017
0.2332                 0.0115663         -2.9567         0.999149         -6.7111         0.999149         -6.7111        0.0157142         128.446
0.2385                  0.011556        -2.43762          0.99913        -6.86368          0.99913        -6.86368        0.0157867         127.877
0.2438                 0.0115468        -1.91736         0.999111        -7.01626         0.999111        -7.01626        0.0158597         127.311
0.2491                 0.0115386        -1.39601         0.999093        -7.16884         0.999093        -7.16884         0.015933         126.748
0.2544                 0.0115314       -0.873665         0.999074        -7.32142         0.999074        -7.32142        0.0160067         126.187
0.2597                 0.0115254       -0.350426         0.999055          -7.474         0.999055          -7.474        0.0160808         125.629
0.265                  0.0115204        0.173611         0.999036        -7.62658         0.999036        -7.62658        0.0161552         125.073
0.2703                 0.0115165        0.698342         0.999017        -7.77916         0.999017        -7.77916          0.01623          124.52
0.2756                 0.0115136         1.22367         0.998998        -7.93173         0.998998        -7.93173        0.0163051         123.969
0.2809                 0.0115119         1.74951          0.99898        -8.08431          0.99898        -8.08431        0.0163806          123.42
0.2862                 0.0115112         2.27575         0.998961        -8.23689         0.998961        -8.23689        0.0164563         122.874
0.2915                 0.0115116         2.80229         0.998942        -8.38946         0.998942        -8.38946        0.0165325         122.331
0.2968                 0.0115131         3.32901         0.998923        -8.54204         0.998923        -8.54204        0.0166089         121.789
0.3021                 0.0115157         3.85584         0.998904        -8.69461         0.998904        -8.69461        0.0166857          121.25
0.3074                 0.0115193         4.38266         0.998885        -8.84718         0.998885        -8.84718        0.0167629         120.714
0.3127                 0.0115241         4.90938         0.998866        -8.99976         0.998866        -8.99976        0.0168403         120.179
0.318                  0.0115299         5.43589         0.998847        -9.15233         0.998847        -9.15233        0.0169181         119.647
0.3233                 0.0115369         5.96207         0.998827         -9.3049         0.998827         -9.3049        0.0169961         119.117
0.3286                 0.0115449         6.48785         0.998808        -9.45748         0.998808        -9.45748        0.0170745         118.589
0.3339                  0.011554         7.01312         0.998789        -9.61005         0.998789        -9.61005        0.0171532         118.064
0.3392                 0.0115643         7.53777          0.99877        -9.76262          0.99877        -9.76262        0.0172322          117.54
0.3445                 0.0115756         8.06172         0.998751        -9.91519         0.998751        -9.91519        0.0173115         117.019
0.3498                  0.011588         8.58483         0.998731        -10.0678         0.998731        -10.0678        0.0173911           116.5
0.3551                 0.0116015         9.10704         0.998712        -10.2203         0.998712        -10.2203         0.017471         115.983
0.3604                  0.011616         9.62824         0.998693        -10.3729         0.998693        -10.3729        0.0175512         115.468
0.3657                 0.0116317         10.1483         0.998673        -10.5255         0.998673        -10.5255        0.0176316         114.955
0.371                  0.0116484         10.6672         0.998654         -10.678         0.998654         -10.678        0.0177124         114.444
0.3763                 0.0116663         11.1848         0.998635        -10.8306         0.998635        -10.8306        0.0177935         113.935
0.3816                 0.0116852          11.701         0.998615        -10.9832         0.998615        -10.9832        0.0178748         113.428
0.3869                 0.0117052         12.2158         0.998596        -11.1357         0.998596        -11.1357        0.0179564         112.923
0.3922                 0.0117262         12.7289         0.998576        -11.2883         0.998576        -11.2883        0.0180383          112.42
0.3975                 0.0117484         13.2404         0.998557        -11.4409         0.998557        -11.4409        0.0181204         111.919
0.4028                 0.0117716         13.7501         0.998537        -11.5934         0.998537        -11.5934        0.0182028          111.42
0.4081                 0.0117958          14.258         0.998518         -11.746         0.998518         -11.746        0.0182855         110.922
0.4134                 0.0118212          14.764         0.998498        -11.8986         0.998498        -11.8986        0.0183685         110.427
0.4187                 0.0118476          15.268         0.998478        -12.0511         0.998478        -12.0511        0.0184517         109.933
0.424                   0.011875           15.77         0.998459        -12.2037         0.998459        -12.2037        0.0185352         109.441
0.4293                 0.0119035         16.2697         0.998439        -12.3563         0.998439        -12.3563         0.018619         108.951
0.4346                  0.011933         16.7672         0.998419        -12.5088         0.998419        -12.5088         0.018703         108.463
0.4399                 0.0119636         17.2625         0.998399        -12.6614         0.998399        -12.6614        0.0187872         107.976
0.4452                 0.0119952         17.7553          0.99838        -12.8139          0.99838        -12.8139        0.0188717         107.492
0.4505                 0.0120279         18.2457          0.99836        -12.9665          0.99836        -12.9665        0.0189565         107.009
0.4558                 0.0120615         18.7336          0.99834        -13.1191          0.99834        -13.1191        0.0190415         106.527
0.4611                 0.0120962         19.2188          0.99832        -13.2716          0.99832        -13.2716        0.0191268         106.048
0.4664                 0.0121319         19.7015           0.9983        -13.4242           0.9983        -13.4242        0.0192123          105.57
0.4717                 0.0121686         20.1814          0.99828        -13.5768          0.99828        -13.5768         0.019298         105.093
0.477                  0.0122063         20.6586          0.99826        -13.7293          0.99826        -13.7293         0.019384         104.619
0.4823                  0.012245         21.1329          0.99824        -13.8819          0.99824        -13.8819        0.0194703         104.146
0.4876                 0.0122847         21.6044          0.99822        -14.0344          0.99822        -14.0344        0.0195568         103.674
0.4929                 0.0123254         22.0729           0.9982         -14.187           0.9982         -14.187        0.0196435         103.204
0.4982                  0.012367         22.5385          0.99818        -14.3395          0.99818        -14.3395        0.0197304         102.736
0.5035                 0.0124096          23.001          0.99816        -14.4921          0.99816        -14.4921        0.0198176         102.269
0.5088                 0.0124532         23.4605          0.99814        -14.6447          0.99814        -14.6447         0.019905         101.804
0.5141                 0.0124977         23.9168          0.99812        -14.7972          0.99812        -14.7972        0.0199927          101.34
0.5194                 0.0125432           24.37         0.998099        -14.9498         0.998099        -14.9498        0.0200806         100.878
0.5247                 0.0125896           24.82         0.998079        -15.1023         0.998079        -15.1023        0.0201687         100.417
0.53                    0.012637         25.2667         0.998059        -15.2549         0.998059        -15.2549         0.020257         99.9577
0.5353                 0.0126853         25.7102         0.998039        -15.4074         0.998039        -15.4074        0.0203456         99.4999
0.5406                 0.0127345         26.1504         0.998018          -15.56         0.998018          -15.56        0.0204344         99.0435
0.5459                 0.0127846         26.5872         0.997998        -15.7126         0.997998        -15.7126        0.0205234         98.5885
0.5512                 0.0128356         27.0207         0.997977        -15.8651         0.997977        -15.8651        0.0206126         98.1349
0.5565                 0.0128875         27.4509         0.997957        -16.0177         0.997957        -16.0177        0.0207021         97.6827
0.5618                 0.0129404         27.8775         0.997936        -16.1702         0.997936        -16.1702        0.0207918         97.2319
0.5671                 0.0129941         28.3008         0.997916        -16.3228         0.997916        -16.3228        0.0208817         96.7825
0.5724                 0.0130486         28.7206         0.997895        -16.4753         0.997895        -16.4753        0.0209718         96.3344
0.5777                 0.0131041          29.137         0.997875        -16.6279         0.997875        -16.6279        0.0210621         95.8876
0.583                  0.0131604         29.5499         0.997854        -16.7804         0.997854        -16.7804        0.0211527         95.4422
0.5883                 0.0132175         29.9593         0.997834         -16.933         0.997834         -16.933        0.0212434         94.9981
0.5936                 0.0132755         30.3651         0.997813        -17.0855         0.997813        -17.0855        0.0213344         94.5553
0.5989                 0.0133344         30.7675         0.997792        -17.2381         0.997792        -17.2381        0.0214256         94.1137
0.6042                  0.013394         31.1663         0.997772        -17.3906         0.997772        -17.3906         0.021517         93.6735
0.6095                 0.0134545         31.5616         0.997751        -17.5432         0.997751        -17.5432        0.0216086         93.2344
0.6148                 0.0135158         31.9533          0.99773        -17.6957          0.99773        -17.6957        0.0217005         92.7967
0.6201                 0.0135779         32.3414         0.997709        -17.8483         0.997709        -17.8483        0.0217925         92.3602
0.6254                 0.0136409         32.7261         0.997688        -18.0008         0.997688        -18.0008        0.0218848         91.9249
0.6307                 0.0137046         33.1072         0.997667        -18.1534         0.997667        -18.1534        0.0219772         91.4907
0.636                   0.013769         33.4847         0.997646        -18.3059         0.997646        -18.3059        0.0220699         91.0578
0.6413                 0.0138343         33.8587         0.997625        -18.4585         0.997625        -18.4585        0.0221628         90.6261
0.6466                 0.0139004         34.2291         0.997604         -18.611         0.997604         -18.611        0.0222559         90.1956
0.6519                 0.0139672          34.596         0.997583        -18.7636         0.997583        -18.7636        0.0223492         89.7662
0.6572                 0.0140347         34.9593         0.997562        -18.9161         0.997562        -18.9161        0.0224427         89.3379
0.6625                  0.014103         35.3192         0.997541        -19.0687         0.997541        -19.0687        0.0225363         88.9108
0.6678                 0.0141721         35.6754          0.99752        -19.2212          0.99752        -19.2212        0.0226303         88.4848
0.6731                 0.0142419         36.0282         0.997499        -19.3738         0.997499        -19.3738        0.0227244           88.06
0.6784                 0.0143124         36.3775         0.997478        -19.5263         0.997478        -19.5263        0.0228187         87.6362
0.6837                 0.0143836         36.7233         0.997457        -19.6789         0.997457        -19.6789        0.0229132         87.2136
0.689                  0.0144555         37.0656         0.997435        -19.8314         0.997435        -19.8314        0.0230079          86.792
0.6943                 0.0145282         37.4044         0.997414         -19.984         0.997414         -19.984        0.0231028         86.3715
0.6996                 0.0146015         37.7397         0.997393        -20.1365         0.997393        -20.1365        0.0231979         85.9521
0.7049                 0.0146756         38.0716         0.997371         -20.289         0.997371         -20.289        0.0232933         85.5337
0.7102                 0.0147503         38.4001          0.99735        -20.4416          0.99735        -20.4416        0.0233888         85.1163
0.7155                 0.0148257         38.7252         0.997328        -20.5941         0.997328        -20.5941        0.0234845            84.7
0.7208                 0.0149018         39.0469         0.997307        -20.7467         0.997307        -20.7467        0.0235804         84.2848
0.7261                 0.0149785         39.3652         0.997285        -20.8992         0.997285        -20.8992        0.0236765         83.8705
0.7314                 0.0150559         39.6802         0.997264        -21.0518         0.997264        -21.0518        0.0237729         83.4573
0.7367                  0.015134         39.9918         0.997242        -21.2043         0.997242        -21.2043        0.0238694          83.045
0.742                  0.0152127         40.3001         0.997221        -21.3569         0.997221        -21.3569        0.0239661         82.6337
0.7473                  0.015292         40.6051         0.997199        -21.5094         0.997199        -21.5094         0.024063         82.2235
0.7526                  0.015372         40.9068         0.997177        -21.6619         0.997177        -21.6619        0.0241601         81.8142
0.7579                 0.0154526         41.2052         0.997156        -21.8145         0.997156        -21.8145        0.0242574         81.4058
0.7632                 0.0155338         41.5004         0.997134         -21.967         0.997134         -21.967        0.0243549         80.9984
0.7685                 0.0156156         41.7924         0.997112        -22.1196         0.997112        -22.1196        0.0244526         80.5919
0.7738                 0.0156981         42.0812          0.99709        -22.2721          0.99709        -22.2721        0.0245505         80.1864
0.7791                 0.0157811         42.3668         0.997069        -22.4247         0.997069        -22.4247        0.0246486         79.7818
0.7844                 0.0158647         42.6493         0.997047        -22.5772         0.997047        -22.5772        0.0247469         79.3782
0.7897                  0.015949         42.9287         0.997025        -22.7297         0.997025        -22.7297        0.0248453         78.9754
0.795                  0.0160338         43.2049         0.997003        -22.8823         0.997003        -22.8823         0.024944         78.5735
0.8003                 0.0161192         43.4781         0.996981        -23.0348         0.996981        -23.0348        0.0250429         78.1726
0.8056                 0.0162051         43.7482         0.996959        -23.1874         0.996959        -23.1874         0.025142         77.7725
0.8109                 0.0162917         44.0153         0.996937        -23.3399         0.996937        -23.3399        0.0252412         77.3733
0.8162                 0.0163788         44.2794         0.996915        -23.4925         0.996915        -23.4925        0.0253407          76.975
0.8215                 0.0164664         44.5405         0.996892         -23.645         0.996892         -23.645        0.0254403         76.5776
0.8268                 0.0165546         44.7986          0.99687        -23.7975          0.99687        -23.7975        0.0255402          76.181
0.8321                 0.0166434         45.0538         0.996848        -23.9501         0.996848        -23.9501        0.0256402         75.7853
0.8374                 0.0167327         45.3061         0.996826        -24.1026         0.996826        -24.1026        0.0257404         75.3904
0.8427                 0.0168225         45.5555         0.996803        -24.2552         0.996803        -24.2552        0.0258409         74.9963
0.848                  0.0169129          45.802         0.996781        -24.4077         0.996781        -24.4077        0.0259415         74.6031
0.8533                 0.0170038         46.0457         0.996759        -24.5602         0.996759        -24.5602        0.0260423         74.2107
0.8586                 0.0170952         46.2866         0.996736        -24.7128         0.996736        -24.7128        0.0261433         73.8191
0.8639                 0.0171872         46.5247         0.996714        -24.8653         0.996714        -24.8653        0.0262445         73.4284
0.8692                 0.0172796         46.7601         0.996691        -25.0178         0.996691        -25.0178        0.0263459         73.0384
0.8745                 0.0173726         46.9927         0.996669        -25.1704         0.996669        -25.1704        0.0264475         72.6492
0.8798                  0.017466         47.2226         0.996646        -25.3229         0.996646        -25.3229        0.0265492         72.2609
0.8851                   0.01756         47.4498         0.996624        -25.4755         0.996624        -25.4755        0.0266512         71.8733
0.8904                 0.0176545         47.6744         0.996601         -25.628         0.996601         -25.628        0.0267534         71.4865
0.8957                 0.0177494         47.8963         0.996579        -25.7805         0.996579        -25.7805        0.0268557         71.1004
0.901                  0.0178448         48.1157         0.996556        -25.9331         0.996556        -25.9331        0.0269583         70.7151
0.9063                 0.0179408         48.3324         0.996533        -26.0856         0.996533        -26.0856         0.027061         70.3306
0.9116                 0.0180372         48.5465          0.99651        -26.2382          0.99651        -26.2382         0.027164         69.9469
0.9169                  0.018134         48.7582         0.996488        -26.3907         0.996488        -26.3907        0.0272671         69.5639
0.9222                 0.0182314         48.9673         0.996465        -26.5432         0.996465        -26.5432        0.0273704         69.1816
0.9275                 0.0183292          49.174         0.996442        -26.6958         0.996442        -26.6958        0.0274739         68.8001
0.9328                 0.0184274         49.3781         0.996419        -26.8483         0.996419        -26.8483        0.0275776         68.4193
0.9381                 0.0185261         49.5799         0.996396        -27.0008         0.996396        -27.0008        0.0276815         68.0392
0.9434                 0.0186253         49.7792         0.996373        -27.1534         0.996373        -27.1534        0.0277856         67.6599
0.9487                 0.0187249         49.9761          0.99635        -27.3059          0.99635        -27.3059        0.0278899         67.2813
0.954                   0.018825         50.1707         0.996327        -27.4585         0.996327        -27.4585        0.0279944         66.9033
0.9593                 0.0189255         50.3629         0.996304         -27.611         0.996304         -27.611         0.028099         66.5261
0.9646                 0.0190265         50.5528         0.996281        -27.7635         0.996281        -27.7635        0.0282039         66.1496
0.9699                 0.0191279         50.7404         0.996257        -27.9161         0.996257        -27.9161         0.028309         65.7738
0.9752                 0.0192297         50.9257         0.996234        -28.0686         0.996234        -28.0686        0.0284142         65.3987
0.9805                  0.019332         51.1088         0.996211        -28.2211         0.996211        -28.2211        0.0285196         65.0242
0.9858                 0.0194347         51.2896         0.996188        -28.3737         0.996188        -28.3737        0.0286253         64.6505
0.9911                 0.0195378         51.4682         0.996164        -28.5262         0.996164        -28.5262        0.0287311         64.2774
0.9964                 0.0196413         51.6447         0.996141        -28.6787         0.996141        -28.6787        0.0288371          63.905