! TOUCHSTONE file generated by CST MICROWAVE STUDIO
! Date and time: Tue Jan  7 09:43:30 2020
! Project name: OSHPark_FR408_Transition2.cst
! Parameters = {GND_Plane_XMax=12.5; Cap_Disk_XOffset=0; Cap_Disk2_YCenter=-1.03; Cap_Disk_YCenter=1.03; Cap_Disk_XCenter=7.39; Cap_Disk_Radius=0.5; BottomSupport_Left_YMax=4.76; BottomSupport_Left_YMin=3.74; BottomSupport_Right_YMax=-3.74; BottomSupport_Right_YMin=-4.76; BottomSupport_XMax=11.64; BottomSupport_XMin=6.89; BottomSupport_ZMax=-1.64084; BottomSupport_ZMin=-3.58; Cu1_Thickness=0.03556; Cu2_Thickness=0.01778; Fr408Core_Thickness=1.1938; GND_Plane_Offset=2.85; PCBThickness=1.6256; Prepreg1_Zmin=-0.20574; Prepreg_Thickness=0.17018; RFTraceYMax=0.17145; RFTrace_XMax=15; RFTrace_XMin=11.46; RFTrace_YMin=-0.17145; SMA_CenterCond_Inner_XMax=11.64; SMA_CenterCond_Radius=0.6; SMA_Dielectric_InnerRadius=0.6; SMA_Dielectric_OuterRadius=2; SMA_Dielectric_XMax=5.62; SMA_Dielectric_XMin=0; SMA_Dielectric_YCenter=0; SMA_Dielectric_ZCenter=0; SMA_Footprint_Center_XMax=12.49; SMA_Footprint_Center_XMin=7.74; SMA_Footprint_Center_YMax=0.75; SMA_Footprint_Center_YMin=-0.75; SMA_OuterCond_InnerRadius=2; SMA_OuterCond_OuterRadius=3; SMA_OuterCond_XMax=6.89; SMA_XMax=6.67; SMA_XMin=0; SMA_YCenter=0; SMA_ZCenter=0; TopSupport_ZMax=1.02; TopSupport_ZMin=0; Via1_XCenter=7.5; Via1_YCenter=-4.25; Via2_XCenter=8.75; Via2_YCenter=-4.25; Via3_XCenter=10; Via3_YCenter=-4.25; Via4_XCenter=11.25; Via4_YCenter=-4.25; Via5_XCenter=7.5; Via5_YCenter=4.25; Via6_XCenter=8.75; Via6_YCenter=4.25; Via7_XCenter=10; Via7_YCenter=4.25; Via8_XCenter=11.25; Via8_YCenter=4.25; ViaInnerRadius=0; ViaOuterRadius=0.381}
! Header version: 2015
! Port assignment regex: !\s*Touchstone port\s*([0-9]+)\s*=\s*CST MWS port\s*([0-9]+)\s*\(\"(.*)\"\)(\s*mode\s*([0-9]+))?.*
! Touchstone port assignment:
! Touchstone port 1 = CST MWS port 1 ("")
! Touchstone port 2 = CST MWS port 2 ("")
# GHz S MA R 50
0                      0.0348132               0         0.974603               0         0.974603               0        0.0159182               0
0.0053                 0.0122058        -24.1231         0.999939       -0.158492         0.999939       -0.158492        0.0124106         153.864
0.0106                 0.0122031        -24.3957         0.999924        -0.30527         0.999924        -0.30527        0.0123867         153.783
0.0159                 0.0122052        -24.3575         0.999909       -0.455382         0.999909       -0.455382        0.0124176         153.524
0.0212                 0.0121956        -24.2698         0.999894       -0.606331         0.999894       -0.606331        0.0124492         153.192
0.0265                 0.0121767        -24.1715         0.999879       -0.757617         0.999879       -0.757617        0.0124766         152.821
0.0318                 0.0121611        -24.0506         0.999865       -0.909068         0.999865       -0.909068        0.0125097         152.448
0.0371                 0.0121388        -23.9361          0.99985        -1.06062          0.99985        -1.06062        0.0125375         152.054
0.0424                 0.0120987        -23.8549         0.999836        -1.21223         0.999836        -1.21223        0.0125487         151.617
0.0477                 0.0120645        -23.7574         0.999821        -1.36388         0.999821        -1.36388        0.0125662          151.19
0.053                  0.0120358        -23.6451         0.999807        -1.51556         0.999807        -1.51556        0.0125895         150.774
0.0583                 0.0120149        -23.5133         0.999792        -1.66725         0.999792        -1.66725        0.0126207         150.375
0.0636                 0.0119912        -23.3855         0.999777        -1.81897         0.999777        -1.81897        0.0126493          149.97
0.0689                 0.0119649        -23.2614         0.999763        -1.97069         0.999763        -1.97069        0.0126756         149.558
0.0742                  0.011938        -23.1371         0.999748        -2.12243         0.999748        -2.12243        0.0127013         149.145
0.0795                 0.0119114        -23.0108         0.999733        -2.27417         0.999733        -2.27417        0.0127273         148.732
0.0848                 0.0118855        -22.8817         0.999718        -2.42591         0.999718        -2.42591        0.0127542         148.321
0.0901                 0.0118595        -22.7518         0.999704        -2.57767         0.999704        -2.57767        0.0127808          147.91
0.0954                 0.0118332        -22.6213         0.999689        -2.72942         0.999689        -2.72942        0.0128073         147.499
0.1007                  0.011807        -22.4896         0.999674        -2.88118         0.999674        -2.88118        0.0128338         147.088
0.106                  0.0117809        -22.3567         0.999659        -3.03295         0.999659        -3.03295        0.0128604         146.677
0.1113                 0.0117549        -22.2225         0.999644        -3.18471         0.999644        -3.18471        0.0128871         146.267
0.1166                 0.0117289        -22.0874         0.999629        -3.33648         0.999629        -3.33648        0.0129138         145.856
0.1219                 0.0117029        -21.9514         0.999614        -3.48825         0.999614        -3.48825        0.0129404         145.446
0.1272                  0.011677        -21.8144         0.999599        -3.64002         0.999599        -3.64002        0.0129671         145.037
0.1325                 0.0116511        -21.6763         0.999584        -3.79179         0.999584        -3.79179        0.0129937         144.627
0.1378                 0.0116253        -21.5371         0.999569        -3.94357         0.999569        -3.94357        0.0130205         144.218
0.1431                 0.0115995        -21.3969         0.999554        -4.09534         0.999554        -4.09534        0.0130472          143.81
0.1484                 0.0115738        -21.2558         0.999539        -4.24712         0.999539        -4.24712        0.0130739         143.401
0.1537                 0.0115481        -21.1137         0.999524         -4.3989         0.999524         -4.3989        0.0131006         142.993
0.159                  0.0115225        -20.9706         0.999509        -4.55068         0.999509        -4.55068        0.0131273         142.586
0.1643                  0.011497        -20.8263         0.999494        -4.70246         0.999494        -4.70246        0.0131541         142.178
0.1696                 0.0114715        -20.6811         0.999478        -4.85424         0.999478        -4.85424        0.0131808         141.771
0.1749                  0.011446        -20.5349         0.999463        -5.00602         0.999463        -5.00602        0.0132076         141.365
0.1802                 0.0114206        -20.3876         0.999448         -5.1578         0.999448         -5.1578        0.0132343         140.958
0.1855                 0.0113953        -20.2393         0.999433        -5.30958         0.999433        -5.30958        0.0132611         140.552
0.1908                 0.0113701        -20.0899         0.999417        -5.46136         0.999417        -5.46136        0.0132878         140.146
0.1961                 0.0113449        -19.9395         0.999402        -5.61315         0.999402        -5.61315        0.0133146         139.741
0.2014                 0.0113198         -19.788         0.999387        -5.76493         0.999387        -5.76493        0.0133414         139.336
0.2067                 0.0112948        -19.6355         0.999371        -5.91672         0.999371        -5.91672        0.0133682         138.931
0.212                  0.0112698        -19.4819         0.999356         -6.0685         0.999356         -6.0685         0.013395         138.526
0.2173                 0.0112449        -19.3271          0.99934        -6.22029          0.99934        -6.22029        0.0134218         138.122
0.2226                 0.0112201        -19.1713         0.999325        -6.37207         0.999325        -6.37207        0.0134486         137.718
0.2279                 0.0111954        -19.0144         0.999309        -6.52386         0.999309        -6.52386        0.0134755         137.315
0.2332                 0.0111707        -18.8564         0.999294        -6.67565         0.999294        -6.67565        0.0135023         136.911
0.2385                 0.0111461        -18.6973         0.999278        -6.82743         0.999278        -6.82743        0.0135291         136.508
0.2438                 0.0111216        -18.5371         0.999263        -6.97922         0.999263        -6.97922         0.013556         136.105
0.2491                 0.0110972        -18.3757         0.999247        -7.13101         0.999247        -7.13101        0.0135829         135.703
0.2544                 0.0110728        -18.2132         0.999231         -7.2828         0.999231         -7.2828        0.0136097         135.301
0.2597                 0.0110485        -18.0495         0.999216        -7.43458         0.999216        -7.43458        0.0136366         134.899
0.265                  0.0110244        -17.8847           0.9992        -7.58637           0.9992        -7.58637        0.0136635         134.497
0.2703                 0.0110003        -17.7187         0.999184        -7.73816         0.999184        -7.73816        0.0136904         134.095
0.2756                 0.0109763        -17.5515         0.999168        -7.88995         0.999168        -7.88995        0.0137174         133.694
0.2809                 0.0109524        -17.3831         0.999153        -8.04174         0.999153        -8.04174        0.0137443         133.293
0.2862                 0.0109286        -17.2136         0.999137        -8.19353         0.999137        -8.19353        0.0137713         132.893
0.2915                 0.0109048        -17.0429         0.999121        -8.34532         0.999121        -8.34532        0.0137982         132.492
0.2968                 0.0108812        -16.8709         0.999105        -8.49711         0.999105        -8.49711        0.0138252         132.092
0.3021                 0.0108577        -16.6977         0.999089         -8.6489         0.999089         -8.6489        0.0138522         131.692
0.3074                 0.0108343        -16.5233         0.999073        -8.80069         0.999073        -8.80069        0.0138792         131.292
0.3127                 0.0108109        -16.3476         0.999057        -8.95248         0.999057        -8.95248        0.0139063         130.893
0.318                  0.0107877        -16.1707         0.999041        -9.10427         0.999041        -9.10427        0.0139333         130.493
0.3233                 0.0107646        -15.9926         0.999025        -9.25606         0.999025        -9.25606        0.0139604         130.094
0.3286                 0.0107416        -15.8131         0.999009        -9.40786         0.999009        -9.40786        0.0139875         129.696
0.3339                 0.0107187        -15.6324         0.998993        -9.55965         0.998993        -9.55965        0.0140146         129.297
0.3392                 0.0106959        -15.4505         0.998977        -9.71144         0.998977        -9.71144        0.0140417         128.899
0.3445                 0.0106732        -15.2672         0.998961        -9.86323         0.998961        -9.86323        0.0140689           128.5
0.3498                 0.0106507        -15.0826         0.998945         -10.015         0.998945         -10.015        0.0140961         128.102
0.3551                 0.0106282        -14.8967         0.998929        -10.1668         0.998929        -10.1668        0.0141233         127.705
0.3604                 0.0106059        -14.7095         0.998913        -10.3186         0.998913        -10.3186        0.0141505         127.307
0.3657                 0.0105837         -14.521         0.998896        -10.4704         0.998896        -10.4704        0.0141778         126.909
0.371                  0.0105616        -14.3312          0.99888        -10.6222          0.99888        -10.6222         0.014205         126.512
0.3763                 0.0105396          -14.14         0.998864         -10.774         0.998864         -10.774        0.0142324         126.115
0.3816                 0.0105178        -13.9474         0.998847        -10.9258         0.998847        -10.9258        0.0142597         125.718
0.3869                 0.0104961        -13.7536         0.998831        -11.0776         0.998831        -11.0776        0.0142871         125.322
0.3922                 0.0104745        -13.5583         0.998815        -11.2294         0.998815        -11.2294        0.0143144         124.925
0.3975                 0.0104531        -13.3617         0.998798        -11.3812         0.998798        -11.3812        0.0143419         124.529
0.4028                 0.0104318        -13.1637         0.998782         -11.533         0.998782         -11.533        0.0143693         124.133
0.4081                 0.0104107        -12.9643         0.998765        -11.6848         0.998765        -11.6848        0.0143968         123.737
0.4134                 0.0103896        -12.7635         0.998749        -11.8366         0.998749        -11.8366        0.0144243         123.341
0.4187                 0.0103688        -12.5613         0.998732        -11.9883         0.998732        -11.9883        0.0144519         122.946
0.424                   0.010348        -12.3577         0.998716        -12.1401         0.998716        -12.1401        0.0144795          122.55
0.4293                 0.0103275        -12.1527         0.998699        -12.2919         0.998699        -12.2919        0.0145071         122.155
0.4346                  0.010307        -11.9463         0.998683        -12.4437         0.998683        -12.4437        0.0145347          121.76
0.4399                 0.0102868        -11.7384         0.998666        -12.5955         0.998666        -12.5955        0.0145624         121.365
0.4452                 0.0102666        -11.5292         0.998649        -12.7473         0.998649        -12.7473        0.0145902          120.97
0.4505                 0.0102467        -11.3184         0.998633        -12.8991         0.998633        -12.8991        0.0146179         120.575
0.4558                 0.0102269        -11.1063         0.998616        -13.0509         0.998616        -13.0509        0.0146457         120.181
0.4611                 0.0102072        -10.8927         0.998599        -13.2027         0.998599        -13.2027        0.0146736         119.786
0.4664                 0.0101878        -10.6776         0.998582        -13.3545         0.998582        -13.3545        0.0147015         119.392
0.4717                 0.0101685        -10.4611         0.998566        -13.5063         0.998566        -13.5063        0.0147294         118.998
0.477                  0.0101493        -10.2431         0.998549        -13.6581         0.998549        -13.6581        0.0147574         118.604
0.4823                 0.0101304        -10.0236         0.998532        -13.8099         0.998532        -13.8099        0.0147854          118.21
0.4876                 0.0101116        -9.80272         0.998515        -13.9617         0.998515        -13.9617        0.0148135         117.817
0.4929                  0.010093        -9.58032         0.998498        -14.1135         0.998498        -14.1135        0.0148416         117.423
0.4982                 0.0100746        -9.35645         0.998481        -14.2653         0.998481        -14.2653        0.0148698          117.03
0.5035                 0.0100564        -9.13109         0.998464        -14.4171         0.998464        -14.4171         0.014898         116.637
0.5088                 0.0100383        -8.90424         0.998447        -14.5689         0.998447        -14.5689        0.0149263         116.244
0.5141                 0.0100205        -8.67591          0.99843        -14.7207          0.99843        -14.7207        0.0149546         115.851
0.5194                 0.0100028        -8.44609         0.998413        -14.8725         0.998413        -14.8725        0.0149829         115.458
0.5247                0.00998536        -8.21477         0.998396        -15.0243         0.998396        -15.0243        0.0150114         115.065
0.53                   0.0099681        -7.98197         0.998379        -15.1761         0.998379        -15.1761        0.0150398         114.672
0.5353                0.00995106        -7.74766         0.998362        -15.3279         0.998362        -15.3279        0.0150684          114.28
0.5406                0.00993422        -7.51187         0.998345        -15.4797         0.998345        -15.4797        0.0150969         113.888
0.5459                0.00991758        -7.27458         0.998327        -15.6315         0.998327        -15.6315        0.0151256         113.495
0.5512                0.00990115        -7.03579          0.99831        -15.7833          0.99831        -15.7833        0.0151543         113.103
0.5565                0.00988494        -6.79551         0.998293        -15.9351         0.998293        -15.9351         0.015183         112.711
0.5618                0.00986896        -6.55372         0.998276        -16.0869         0.998276        -16.0869        0.0152118          112.32
0.5671                 0.0098532        -6.31044         0.998258        -16.2387         0.998258        -16.2387        0.0152407         111.928
0.5724                0.00983765        -6.06568         0.998241        -16.3905         0.998241        -16.3905        0.0152697         111.536
0.5777                0.00982234        -5.81942         0.998224        -16.5423         0.998224        -16.5423        0.0152987         111.145
0.583                 0.00980725        -5.57167         0.998206        -16.6941         0.998206        -16.6941        0.0153277         110.753
0.5883                0.00979242        -5.32243         0.998189        -16.8459         0.998189        -16.8459        0.0153569         110.362
0.5936                0.00977781        -5.07171         0.998171        -16.9977         0.998171        -16.9977        0.0153861         109.971
0.5989                0.00976344        -4.81952         0.998154        -17.1495         0.998154        -17.1495        0.0154153          109.58
0.6042                0.00974932        -4.56584         0.998136        -17.3013         0.998136        -17.3013        0.0154447         109.189
0.6095                0.00973544         -4.3107         0.998119        -17.4531         0.998119        -17.4531        0.0154741         108.798
0.6148                0.00972183        -4.05409         0.998101        -17.6049         0.998101        -17.6049        0.0155035         108.408
0.6201                0.00970847        -3.79602         0.998084        -17.7567         0.998084        -17.7567        0.0155331         108.017
0.6254                0.00969536        -3.53649         0.998066        -17.9085         0.998066        -17.9085        0.0155627         107.627
0.6307                0.00968251        -3.27552         0.998048        -18.0603         0.998048        -18.0603        0.0155924         107.237
0.636                 0.00966992        -3.01311         0.998031        -18.2121         0.998031        -18.2121        0.0156222         106.846
0.6413                0.00965762        -2.74926         0.998013        -18.3639         0.998013        -18.3639         0.015652         106.456
0.6466                0.00964558        -2.48399         0.997995        -18.5157         0.997995        -18.5157        0.0156819         106.066
0.6519                0.00963382         -2.2173         0.997977        -18.6675         0.997977        -18.6675        0.0157119         105.677
0.6572                0.00962232        -1.94921          0.99796        -18.8193          0.99796        -18.8193         0.015742         105.287
0.6625                0.00961112        -1.67972         0.997942        -18.9711         0.997942        -18.9711        0.0157722         104.897
0.6678                0.00960021        -1.40884         0.997924        -19.1229         0.997924        -19.1229        0.0158024         104.508
0.6731                0.00958958        -1.13659         0.997906        -19.2748         0.997906        -19.2748        0.0158327         104.118
0.6784                0.00957924       -0.862964         0.997888        -19.4266         0.997888        -19.4266        0.0158631         103.729
0.6837                0.00956919        -0.58799          0.99787        -19.5784          0.99787        -19.5784        0.0158936          103.34
0.689                 0.00955945       -0.311674         0.997852        -19.7302         0.997852        -19.7302        0.0159242         102.951
0.6943                0.00955002      -0.0340363         0.997834         -19.882         0.997834         -19.882        0.0159549         102.562
0.6996                0.00954089        0.244915         0.997816        -20.0338         0.997816        -20.0338        0.0159856         102.173
0.7049                0.00953207         0.52517         0.997798        -20.1856         0.997798        -20.1856        0.0160165         101.784
0.7102                0.00952355         0.80671          0.99778        -20.3374          0.99778        -20.3374        0.0160474         101.396
0.7155                0.00951536         1.08952         0.997762        -20.4892         0.997762        -20.4892        0.0160784         101.007
0.7208                 0.0095075         1.37357         0.997744         -20.641         0.997744         -20.641        0.0161095         100.619
0.7261                0.00949996         1.65887         0.997725        -20.7928         0.997725        -20.7928        0.0161408         100.231
0.7314                0.00949273         1.94538         0.997707        -20.9446         0.997707        -20.9446        0.0161721         99.8426
0.7367                0.00948584          2.2331         0.997689        -21.0964         0.997689        -21.0964        0.0162035         99.4546
0.742                 0.00947928           2.522         0.997671        -21.2482         0.997671        -21.2482         0.016235         99.0668
0.7473                0.00947307         2.81205         0.997652           -21.4         0.997652           -21.4        0.0162666          98.679
0.7526                0.00946721         3.10325         0.997634        -21.5519         0.997634        -21.5519        0.0162983         98.2914
0.7579                0.00946167         3.39558         0.997616        -21.7037         0.997616        -21.7037        0.0163301         97.9039
0.7632                0.00945648         3.68902         0.997597        -21.8555         0.997597        -21.8555         0.016362         97.5165
0.7685                0.00945165         3.98353         0.997579        -22.0073         0.997579        -22.0073         0.016394         97.1293
0.7738                0.00944718         4.27909          0.99756        -22.1591          0.99756        -22.1591        0.0164261         96.7422
0.7791                0.00944307         4.57569         0.997542        -22.3109         0.997542        -22.3109        0.0164583         96.3552
0.7844                0.00943931         4.87331         0.997523        -22.4627         0.997523        -22.4627        0.0164906         95.9683
0.7897                0.00943591         5.17192         0.997505        -22.6145         0.997505        -22.6145         0.016523         95.5816
0.795                 0.00943288          5.4715         0.997486        -22.7663         0.997486        -22.7663        0.0165556         95.1949
0.8003                0.00943024           5.772         0.997468        -22.9181         0.997468        -22.9181        0.0165882         94.8085
0.8056                0.00942797         6.07342         0.997449        -23.0699         0.997449        -23.0699         0.016621         94.4221
0.8109                0.00942606         6.37574          0.99743        -23.2218          0.99743        -23.2218        0.0166538         94.0359
0.8162                0.00942454         6.67892         0.997412        -23.3736         0.997412        -23.3736        0.0166868         93.6498
0.8215                 0.0094234         6.98293         0.997393        -23.5254         0.997393        -23.5254        0.0167199         93.2639
0.8268                0.00942266         7.28774         0.997374        -23.6772         0.997374        -23.6772        0.0167531         92.8781
0.8321                0.00942231         7.59332         0.997356         -23.829         0.997356         -23.829        0.0167864         92.4925
0.8374                0.00942234         7.89967         0.997337        -23.9808         0.997337        -23.9808        0.0168199         92.1069
0.8427                0.00942277         8.20674         0.997318        -24.1326         0.997318        -24.1326        0.0168534         91.7215
0.848                 0.00942359          8.5145         0.997299        -24.2844         0.997299        -24.2844        0.0168871         91.3363
0.8533                0.00942484          8.8229          0.99728        -24.4362          0.99728        -24.4362        0.0169209         90.9512
0.8586                0.00942648         9.13194         0.997261        -24.5881         0.997261        -24.5881        0.0169548         90.5663
0.8639                0.00942852         9.44158         0.997242        -24.7399         0.997242        -24.7399        0.0169889         90.1815
0.8692                0.00943098          9.7518         0.997223        -24.8917         0.997223        -24.8917         0.017023         89.7968
0.8745                0.00943384         10.0625         0.997204        -25.0435         0.997204        -25.0435        0.0170573         89.4123
0.8798                0.00943714         10.3738         0.997185        -25.1953         0.997185        -25.1953        0.0170918          89.028
0.8851                0.00944086         10.6855         0.997166        -25.3471         0.997166        -25.3471        0.0171263         88.6438
0.8904                0.00944498         10.9976         0.997147        -25.4989         0.997147        -25.4989         0.017161         88.2597
0.8957                0.00944953         11.3102         0.997128        -25.6508         0.997128        -25.6508        0.0171958         87.8758
0.901                 0.00945451         11.6231         0.997109        -25.8026         0.997109        -25.8026        0.0172307         87.4921
0.9063                0.00945993         11.9364          0.99709        -25.9544          0.99709        -25.9544        0.0172658         87.1086
0.9116                0.00946577         12.2499          0.99707        -26.1062          0.99707        -26.1062         0.017301         86.7252
0.9169                0.00947205         12.5638         0.997051         -26.258         0.997051         -26.258        0.0173363          86.342
0.9222                0.00947876         12.8778         0.997032        -26.4098         0.997032        -26.4098        0.0173718         85.9589
0.9275                 0.0094859         13.1921         0.997012        -26.5616         0.997012        -26.5616        0.0174073          85.576
0.9328                0.00949351         13.5065         0.996993        -26.7135         0.996993        -26.7135        0.0174431         85.1933
0.9381                0.00950155          13.821         0.996974        -26.8653         0.996974        -26.8653         0.017479         84.8107
0.9434                0.00951003         14.1356         0.996954        -27.0171         0.996954        -27.0171         0.017515         84.4283
0.9487                0.00951896         14.4503         0.996935        -27.1689         0.996935        -27.1689        0.0175511         84.0461
0.954                 0.00952833          14.765         0.996915        -27.3207         0.996915        -27.3207        0.0175874         83.6641
0.9593                0.00953817         15.0797         0.996896        -27.4725         0.996896        -27.4725        0.0176238         83.2822
0.9646                0.00954846         15.3943         0.996876        -27.6244         0.996876        -27.6244        0.0176604         82.9006
0.9699                 0.0095592         15.7088         0.996857        -27.7762         0.996857        -27.7762        0.0176971         82.5191
0.9752                0.00957039         16.0232         0.996837         -27.928         0.996837         -27.928         0.017734         82.1378
0.9805                0.00958204         16.3374         0.996818        -28.0798         0.996818        -28.0798         0.017771         81.7567
0.9858                0.00959417         16.6514         0.996798        -28.2316         0.996798        -28.2316        0.0178082         81.3758
0.9911                0.00960676         16.9651         0.996778        -28.3834         0.996778        -28.3834        0.0178455         80.9951
0.9964                0.00961979         17.2786         0.996759        -28.5353         0.996759        -28.5353        0.0178829         80.6145