! TOUCHSTONE file generated by CST MICROWAVE STUDIO
! Date and time: Tue Jan  7 09:43:38 2020
! Project name: OSHPark_FR408_Transition2.cst
! Parameters = {GND_Plane_XMax=12; Cap_Disk_XOffset=0; Cap_Disk2_YCenter=-1.03; Cap_Disk_YCenter=1.03; Cap_Disk_XCenter=7.39; Cap_Disk_Radius=0.5; BottomSupport_Left_YMax=4.76; BottomSupport_Left_YMin=3.74; BottomSupport_Right_YMax=-3.74; BottomSupport_Right_YMin=-4.76; BottomSupport_XMax=11.64; BottomSupport_XMin=6.89; BottomSupport_ZMax=-1.64084; BottomSupport_ZMin=-3.58; Cu1_Thickness=0.03556; Cu2_Thickness=0.01778; Fr408Core_Thickness=1.1938; GND_Plane_Offset=2.875; PCBThickness=1.6256; Prepreg1_Zmin=-0.20574; Prepreg_Thickness=0.17018; RFTraceYMax=0.17145; RFTrace_XMax=15; RFTrace_XMin=11.46; RFTrace_YMin=-0.17145; SMA_CenterCond_Inner_XMax=11.64; SMA_CenterCond_Radius=0.6; SMA_Dielectric_InnerRadius=0.6; SMA_Dielectric_OuterRadius=2; SMA_Dielectric_XMax=5.62; SMA_Dielectric_XMin=0; SMA_Dielectric_YCenter=0; SMA_Dielectric_ZCenter=0; SMA_Footprint_Center_XMax=12.49; SMA_Footprint_Center_XMin=7.74; SMA_Footprint_Center_YMax=0.75; SMA_Footprint_Center_YMin=-0.75; SMA_OuterCond_InnerRadius=2; SMA_OuterCond_OuterRadius=3; SMA_OuterCond_XMax=6.89; SMA_XMax=6.67; SMA_XMin=0; SMA_YCenter=0; SMA_ZCenter=0; TopSupport_ZMax=1.02; TopSupport_ZMin=0; Via1_XCenter=7.5; Via1_YCenter=-4.25; Via2_XCenter=8.75; Via2_YCenter=-4.25; Via3_XCenter=10; Via3_YCenter=-4.25; Via4_XCenter=11.25; Via4_YCenter=-4.25; Via5_XCenter=7.5; Via5_YCenter=4.25; Via6_XCenter=8.75; Via6_YCenter=4.25; Via7_XCenter=10; Via7_YCenter=4.25; Via8_XCenter=11.25; Via8_YCenter=4.25; ViaInnerRadius=0; ViaOuterRadius=0.381}
! Header version: 2015
! Port assignment regex: !\s*Touchstone port\s*([0-9]+)\s*=\s*CST MWS port\s*([0-9]+)\s*\(\"(.*)\"\)(\s*mode\s*([0-9]+))?.*
! Touchstone port assignment:
! Touchstone port 1 = CST MWS port 1 ("")
! Touchstone port 2 = CST MWS port 2 ("")
# GHz S MA R 50
0                      0.0118865               0         0.999943               0         0.999943               0        0.0118859             180
0.0053                 0.0129381        -23.0057         0.999902       -0.158697         0.999902       -0.158697        0.0130242         155.581
0.0106                 0.0129711        -23.6576         0.999914       -0.304764         0.999914       -0.304764        0.0130125         155.981
0.0159                 0.0129784        -24.0379         0.999895       -0.454713         0.999895       -0.454713        0.0129734         155.999
0.0212                 0.0129853         -24.345         0.999875       -0.605551         0.999875       -0.605551        0.0129452         155.963
0.0265                 0.0129957        -24.6168         0.999856       -0.756726         0.999856       -0.756726        0.0129258         155.915
0.0318                 0.0130008        -24.8858         0.999837       -0.908067         0.999837       -0.908067        0.0129036         155.849
0.0371                 0.0130107         -25.137         0.999818         -1.0595         0.999818         -1.0595        0.0128879         155.787
0.0424                 0.0130356        -25.3508         0.999799        -1.21099         0.999799        -1.21099        0.0128888         155.751
0.0477                 0.0130547         -25.573          0.99978        -1.36251          0.99978        -1.36251        0.0128844         155.703
0.053                  0.0130685         -25.804         0.999762        -1.51406         0.999762        -1.51406         0.012875         155.643
0.0583                 0.0130749        -26.0488         0.999743        -1.66564         0.999743        -1.66564        0.0128584         155.569
0.0636                 0.0130838        -26.2874         0.999725        -1.81723         0.999725        -1.81723        0.0128445         155.498
0.0689                 0.0130947        -26.5203         0.999706        -1.96883         0.999706        -1.96883         0.012833         155.431
0.0742                 0.0131061        -26.7514         0.999688        -2.12043         0.999688        -2.12043        0.0128221         155.365
0.0795                 0.0131172        -26.9825         0.999669        -2.27204         0.999669        -2.27204        0.0128109         155.297
0.0848                 0.0131275        -27.2145          0.99965        -2.42366          0.99965        -2.42366        0.0127992         155.229
0.0901                  0.013138        -27.4458         0.999632        -2.57529         0.999632        -2.57529        0.0127876          155.16
0.0954                 0.0131486        -27.6762         0.999613        -2.72691         0.999613        -2.72691        0.0127762         155.092
0.1007                 0.0131592        -27.9063         0.999595        -2.87854         0.999595        -2.87854        0.0127649         155.023
0.106                  0.0131697        -28.1363         0.999576        -3.03017         0.999576        -3.03017        0.0127535         154.955
0.1113                 0.0131801        -28.3661         0.999558         -3.1818         0.999558         -3.1818         0.012742         154.886
0.1166                 0.0131905        -28.5957         0.999539        -3.33344         0.999539        -3.33344        0.0127306         154.817
0.1219                 0.0132009        -28.8248         0.999521        -3.48507         0.999521        -3.48507        0.0127192         154.748
0.1272                 0.0132114        -29.0538         0.999502        -3.63671         0.999502        -3.63671        0.0127078          154.68
0.1325                 0.0132217        -29.2826         0.999484        -3.78835         0.999484        -3.78835        0.0126964         154.611
0.1378                 0.0132321        -29.5112         0.999465        -3.93998         0.999465        -3.93998         0.012685         154.542
0.1431                 0.0132424        -29.7397         0.999447        -4.09162         0.999447        -4.09162        0.0126735         154.474
0.1484                 0.0132527        -29.9679         0.999428        -4.24326         0.999428        -4.24326        0.0126621         154.405
0.1537                 0.0132631        -30.1959         0.999409         -4.3949         0.999409         -4.3949        0.0126507         154.337
0.159                  0.0132734        -30.4237         0.999391        -4.54654         0.999391        -4.54654        0.0126392         154.268
0.1643                 0.0132836        -30.6514         0.999372        -4.69818         0.999372        -4.69818        0.0126277           154.2
0.1696                 0.0132939         -30.879         0.999354        -4.84982         0.999354        -4.84982        0.0126162         154.132
0.1749                 0.0133042        -31.1063         0.999335        -5.00146         0.999335        -5.00146        0.0126048         154.064
0.1802                 0.0133144        -31.3335         0.999316         -5.1531         0.999316         -5.1531        0.0125933         153.996
0.1855                 0.0133246        -31.5605         0.999298        -5.30474         0.999298        -5.30474        0.0125818         153.928
0.1908                 0.0133349        -31.7873         0.999279        -5.45638         0.999279        -5.45638        0.0125702          153.86
0.1961                 0.0133451         -32.014          0.99926        -5.60802          0.99926        -5.60802        0.0125587         153.792
0.2014                 0.0133553        -32.2406         0.999242        -5.75966         0.999242        -5.75966        0.0125472         153.724
0.2067                 0.0133655        -32.4669         0.999223         -5.9113         0.999223         -5.9113        0.0125356         153.657
0.212                  0.0133757        -32.6931         0.999204        -6.06294         0.999204        -6.06294         0.012524         153.589
0.2173                 0.0133858        -32.9192         0.999186        -6.21458         0.999186        -6.21458        0.0125125         153.522
0.2226                  0.013396        -33.1451         0.999167        -6.36622         0.999167        -6.36622        0.0125009         153.454
0.2279                 0.0134061        -33.3708         0.999148        -6.51785         0.999148        -6.51785        0.0124893         153.387
0.2332                 0.0134163        -33.5964          0.99913        -6.66949          0.99913        -6.66949        0.0124777          153.32
0.2385                 0.0134264        -33.8218         0.999111        -6.82113         0.999111        -6.82113        0.0124661         153.253
0.2438                 0.0134365        -34.0471         0.999092        -6.97277         0.999092        -6.97277        0.0124545         153.186
0.2491                 0.0134466        -34.2722         0.999074        -7.12441         0.999074        -7.12441        0.0124428         153.119
0.2544                 0.0134567        -34.4971         0.999055        -7.27604         0.999055        -7.27604        0.0124312         153.052
0.2597                 0.0134667        -34.7219         0.999036        -7.42768         0.999036        -7.42768        0.0124195         152.986
0.265                  0.0134768        -34.9465         0.999017        -7.57932         0.999017        -7.57932        0.0124078         152.919
0.2703                 0.0134869         -35.171         0.998999        -7.73095         0.998999        -7.73095        0.0123962         152.853
0.2756                 0.0134969        -35.3953          0.99898        -7.88259          0.99898        -7.88259        0.0123845         152.786
0.2809                 0.0135069        -35.6194         0.998961        -8.03422         0.998961        -8.03422        0.0123728          152.72
0.2862                 0.0135169        -35.8434         0.998942        -8.18586         0.998942        -8.18586        0.0123611         152.654
0.2915                 0.0135269        -36.0672         0.998923        -8.33749         0.998923        -8.33749        0.0123493         152.588
0.2968                 0.0135369        -36.2908         0.998905        -8.48913         0.998905        -8.48913        0.0123376         152.522
0.3021                 0.0135469        -36.5143         0.998886        -8.64076         0.998886        -8.64076        0.0123259         152.456
0.3074                 0.0135569        -36.7377         0.998867        -8.79239         0.998867        -8.79239        0.0123141          152.39
0.3127                 0.0135668        -36.9608         0.998848        -8.94403         0.998848        -8.94403        0.0123024         152.324
0.318                  0.0135767        -37.1838         0.998829        -9.09566         0.998829        -9.09566        0.0122906         152.259
0.3233                 0.0135866        -37.4066          0.99881        -9.24729          0.99881        -9.24729        0.0122788         152.193
0.3286                 0.0135966        -37.6293         0.998792        -9.39892         0.998792        -9.39892        0.0122671         152.128
0.3339                 0.0136064        -37.8518         0.998773        -9.55056         0.998773        -9.55056        0.0122553         152.062
0.3392                 0.0136163        -38.0741         0.998754        -9.70219         0.998754        -9.70219        0.0122435         151.997
0.3445                 0.0136262        -38.2963         0.998735        -9.85382         0.998735        -9.85382        0.0122317         151.932
0.3498                  0.013636        -38.5182         0.998716        -10.0054         0.998716        -10.0054        0.0122199         151.867
0.3551                 0.0136458          -38.74         0.998697        -10.1571         0.998697        -10.1571         0.012208         151.802
0.3604                 0.0136556        -38.9617         0.998678        -10.3087         0.998678        -10.3087        0.0121962         151.737
0.3657                 0.0136654        -39.1831         0.998659        -10.4603         0.998659        -10.4603        0.0121844         151.672
0.371                  0.0136752        -39.4044          0.99864         -10.612          0.99864         -10.612        0.0121725         151.607
0.3763                  0.013685        -39.6255         0.998621        -10.7636         0.998621        -10.7636        0.0121607         151.542
0.3816                 0.0136947        -39.8464         0.998602        -10.9152         0.998602        -10.9152        0.0121488         151.478
0.3869                 0.0137045        -40.0672         0.998583        -11.0668         0.998583        -11.0668         0.012137         151.413
0.3922                 0.0137142        -40.2878         0.998564        -11.2185         0.998564        -11.2185        0.0121251         151.349
0.3975                 0.0137239        -40.5082         0.998545        -11.3701         0.998545        -11.3701        0.0121132         151.284
0.4028                 0.0137335        -40.7284         0.998526        -11.5217         0.998526        -11.5217        0.0121013          151.22
0.4081                 0.0137432        -40.9485         0.998507        -11.6734         0.998507        -11.6734        0.0120894         151.156
0.4134                 0.0137528        -41.1684         0.998488         -11.825         0.998488         -11.825        0.0120775         151.092
0.4187                 0.0137625        -41.3881         0.998469        -11.9766         0.998469        -11.9766        0.0120656         151.028
0.424                  0.0137721        -41.6076          0.99845        -12.1282          0.99845        -12.1282        0.0120537         150.964
0.4293                 0.0137816        -41.8269         0.998431        -12.2799         0.998431        -12.2799        0.0120418           150.9
0.4346                 0.0137912         -42.046         0.998412        -12.4315         0.998412        -12.4315        0.0120299         150.836
0.4399                 0.0138008         -42.265         0.998393        -12.5831         0.998393        -12.5831         0.012018         150.772
0.4452                 0.0138103        -42.4838         0.998374        -12.7347         0.998374        -12.7347        0.0120061         150.709
0.4505                 0.0138198        -42.7024         0.998355        -12.8863         0.998355        -12.8863        0.0119941         150.645
0.4558                 0.0138293        -42.9207         0.998336         -13.038         0.998336         -13.038        0.0119822         150.582
0.4611                 0.0138387        -43.1389         0.998317        -13.1896         0.998317        -13.1896        0.0119703         150.518
0.4664                 0.0138482         -43.357         0.998298        -13.3412         0.998298        -13.3412        0.0119583         150.455
0.4717                 0.0138576        -43.5748         0.998279        -13.4928         0.998279        -13.4928        0.0119464         150.391
0.477                   0.013867        -43.7925         0.998259        -13.6444         0.998259        -13.6444        0.0119344         150.328
0.4823                 0.0138764        -44.0099          0.99824        -13.7961          0.99824        -13.7961        0.0119225         150.265
0.4876                 0.0138857        -44.2272         0.998221        -13.9477         0.998221        -13.9477        0.0119105         150.202
0.4929                 0.0138951        -44.4442         0.998202        -14.0993         0.998202        -14.0993        0.0118985         150.139
0.4982                 0.0139044        -44.6611         0.998183        -14.2509         0.998183        -14.2509        0.0118866         150.076
0.5035                 0.0139137        -44.8778         0.998164        -14.4025         0.998164        -14.4025        0.0118746         150.013
0.5088                 0.0139229        -45.0943         0.998144        -14.5542         0.998144        -14.5542        0.0118626          149.95
0.5141                 0.0139322        -45.3106         0.998125        -14.7058         0.998125        -14.7058        0.0118506         149.887
0.5194                 0.0139414        -45.5267         0.998106        -14.8574         0.998106        -14.8574        0.0118387         149.824
0.5247                 0.0139506        -45.7426         0.998087         -15.009         0.998087         -15.009        0.0118267         149.761
0.53                   0.0139597        -45.9583         0.998067        -15.1606         0.998067        -15.1606        0.0118147         149.699
0.5353                 0.0139689        -46.1738         0.998048        -15.3122         0.998048        -15.3122        0.0118027         149.636
0.5406                  0.013978        -46.3891         0.998029        -15.4639         0.998029        -15.4639        0.0117907         149.573
0.5459                 0.0139871        -46.6042          0.99801        -15.6155          0.99801        -15.6155        0.0117787         149.511
0.5512                 0.0139962        -46.8192          0.99799        -15.7671          0.99799        -15.7671        0.0117667         149.448
0.5565                 0.0140052        -47.0339         0.997971        -15.9187         0.997971        -15.9187        0.0117547         149.386
0.5618                 0.0140142        -47.2484         0.997952        -16.0703         0.997952        -16.0703        0.0117428         149.323
0.5671                 0.0140232        -47.4627         0.997932        -16.2219         0.997932        -16.2219        0.0117308         149.261
0.5724                 0.0140322        -47.6768         0.997913        -16.3735         0.997913        -16.3735        0.0117188         149.199
0.5777                 0.0140411        -47.8907         0.997894        -16.5251         0.997894        -16.5251        0.0117068         149.136
0.583                    0.01405        -48.1044         0.997874        -16.6768         0.997874        -16.6768        0.0116947         149.074
0.5883                 0.0140589        -48.3178         0.997855        -16.8284         0.997855        -16.8284        0.0116827         149.012
0.5936                 0.0140678        -48.5311         0.997836          -16.98         0.997836          -16.98        0.0116708          148.95
0.5989                 0.0140766        -48.7442         0.997816        -17.1316         0.997816        -17.1316        0.0116587         148.888
0.6042                 0.0140854        -48.9571         0.997797        -17.2832         0.997797        -17.2832        0.0116467         148.826
0.6095                 0.0140941        -49.1697         0.997777        -17.4348         0.997777        -17.4348        0.0116347         148.764
0.6148                 0.0141029        -49.3822         0.997758        -17.5864         0.997758        -17.5864        0.0116227         148.702
0.6201                 0.0141116        -49.5944         0.997739         -17.738         0.997739         -17.738        0.0116107          148.64
0.6254                 0.0141203        -49.8064         0.997719        -17.8896         0.997719        -17.8896        0.0115987         148.578
0.6307                 0.0141289        -50.0182           0.9977        -18.0412           0.9977        -18.0412        0.0115867         148.516
0.636                  0.0141375        -50.2299          0.99768        -18.1928          0.99768        -18.1928        0.0115747         148.454
0.6413                 0.0141461        -50.4412         0.997661        -18.3445         0.997661        -18.3445        0.0115627         148.392
0.6466                 0.0141547        -50.6524         0.997641        -18.4961         0.997641        -18.4961        0.0115507          148.33
0.6519                 0.0141632        -50.8634         0.997622        -18.6477         0.997622        -18.6477        0.0115387         148.268
0.6572                 0.0141717        -51.0741         0.997602        -18.7993         0.997602        -18.7993        0.0115267         148.207
0.6625                 0.0141802        -51.2847         0.997583        -18.9509         0.997583        -18.9509        0.0115147         148.145
0.6678                 0.0141886         -51.495         0.997563        -19.1025         0.997563        -19.1025        0.0115027         148.083
0.6731                  0.014197        -51.7051         0.997544        -19.2541         0.997544        -19.2541        0.0114907         148.021
0.6784                 0.0142054        -51.9149         0.997524        -19.4057         0.997524        -19.4057        0.0114786         147.959
0.6837                 0.0142137        -52.1246         0.997505        -19.5573         0.997505        -19.5573        0.0114666         147.898
0.689                   0.014222        -52.3341         0.997485        -19.7089         0.997485        -19.7089        0.0114546         147.836
0.6943                 0.0142303        -52.5433         0.997465        -19.8605         0.997465        -19.8605        0.0114426         147.774
0.6996                 0.0142385        -52.7523         0.997446        -20.0121         0.997446        -20.0121        0.0114306         147.713
0.7049                 0.0142467        -52.9611         0.997426        -20.1637         0.997426        -20.1637        0.0114186         147.651
0.7102                 0.0142548        -53.1697         0.997407        -20.3153         0.997407        -20.3153        0.0114066         147.589
0.7155                  0.014263         -53.378         0.997387        -20.4669         0.997387        -20.4669        0.0113946         147.528
0.7208                 0.0142711        -53.5861         0.997367        -20.6185         0.997367        -20.6185        0.0113826         147.466
0.7261                 0.0142791         -53.794         0.997348        -20.7701         0.997348        -20.7701        0.0113707         147.404
0.7314                 0.0142871        -54.0017         0.997328        -20.9217         0.997328        -20.9217        0.0113587         147.343
0.7367                 0.0142951        -54.2091         0.997308        -21.0733         0.997308        -21.0733        0.0113467         147.281
0.742                  0.0143031        -54.4164         0.997289        -21.2249         0.997289        -21.2249        0.0113347         147.219
0.7473                  0.014311        -54.6234         0.997269        -21.3765         0.997269        -21.3765        0.0113227         147.158
0.7526                 0.0143188        -54.8301         0.997249        -21.5281         0.997249        -21.5281        0.0113107         147.096
0.7579                 0.0143267        -55.0367          0.99723        -21.6797          0.99723        -21.6797        0.0112987         147.035
0.7632                 0.0143345         -55.243          0.99721        -21.8313          0.99721        -21.8313        0.0112867         146.973
0.7685                 0.0143422        -55.4491          0.99719        -21.9829          0.99719        -21.9829        0.0112748         146.911
0.7738                 0.0143499        -55.6549          0.99717        -22.1345          0.99717        -22.1345        0.0112628         146.849
0.7791                 0.0143576        -55.8605         0.997151        -22.2861         0.997151        -22.2861        0.0112508         146.788
0.7844                 0.0143653         -56.066         0.997131        -22.4377         0.997131        -22.4377        0.0112388         146.726
0.7897                 0.0143729        -56.2711         0.997111        -22.5893         0.997111        -22.5893        0.0112269         146.664
0.795                  0.0143804        -56.4761         0.997091        -22.7409         0.997091        -22.7409        0.0112149         146.603
0.8003                  0.014388        -56.6808         0.997071        -22.8925         0.997071        -22.8925        0.0112029         146.541
0.8056                 0.0143954        -56.8852         0.997052        -23.0441         0.997052        -23.0441         0.011191         146.479
0.8109                 0.0144029        -57.0895         0.997032        -23.1957         0.997032        -23.1957         0.011179         146.417
0.8162                 0.0144103        -57.2935         0.997012        -23.3473         0.997012        -23.3473        0.0111671         146.355
0.8215                 0.0144176        -57.4973         0.996992        -23.4988         0.996992        -23.4988        0.0111551         146.293
0.8268                 0.0144249        -57.7008         0.996972        -23.6504         0.996972        -23.6504        0.0111432         146.232
0.8321                 0.0144322        -57.9041         0.996952         -23.802         0.996952         -23.802        0.0111312          146.17
0.8374                 0.0144395        -58.1072         0.996932        -23.9536         0.996932        -23.9536        0.0111193         146.108
0.8427                 0.0144466          -58.31         0.996913        -24.1052         0.996913        -24.1052        0.0111073         146.046
0.848                  0.0144538        -58.5126         0.996893        -24.2568         0.996893        -24.2568        0.0110954         145.984
0.8533                 0.0144609        -58.7149         0.996873        -24.4084         0.996873        -24.4084        0.0110834         145.922
0.8586                 0.0144679         -58.917         0.996853          -24.56         0.996853          -24.56        0.0110715          145.86
0.8639                  0.014475        -59.1189         0.996833        -24.7116         0.996833        -24.7116        0.0110596         145.797
0.8692                 0.0144819        -59.3206         0.996813        -24.8632         0.996813        -24.8632        0.0110476         145.735
0.8745                 0.0144889         -59.522         0.996793        -25.0148         0.996793        -25.0148        0.0110357         145.673
0.8798                 0.0144957        -59.7231         0.996773        -25.1664         0.996773        -25.1664        0.0110238         145.611
0.8851                 0.0145026         -59.924         0.996753        -25.3179         0.996753        -25.3179        0.0110119         145.548
0.8904                 0.0145094        -60.1247         0.996733        -25.4695         0.996733        -25.4695            0.011         145.486
0.8957                 0.0145161        -60.3251         0.996713        -25.6211         0.996713        -25.6211         0.010988         145.424
0.901                  0.0145228        -60.5253         0.996693        -25.7727         0.996693        -25.7727        0.0109761         145.361
0.9063                 0.0145295        -60.7253         0.996673        -25.9243         0.996673        -25.9243        0.0109642         145.299
0.9116                 0.0145361        -60.9249         0.996653        -26.0759         0.996653        -26.0759        0.0109523         145.236
0.9169                 0.0145426        -61.1244         0.996633        -26.2275         0.996633        -26.2275        0.0109404         145.173
0.9222                 0.0145491        -61.3236         0.996613        -26.3791         0.996613        -26.3791        0.0109285         145.111
0.9275                 0.0145556        -61.5226         0.996593        -26.5306         0.996593        -26.5306        0.0109166         145.048
0.9328                  0.014562        -61.7213         0.996572        -26.6822         0.996572        -26.6822        0.0109047         144.985
0.9381                 0.0145684        -61.9197         0.996552        -26.8338         0.996552        -26.8338        0.0108928         144.922
0.9434                 0.0145747         -62.118         0.996532        -26.9854         0.996532        -26.9854         0.010881         144.859
0.9487                 0.0145809        -62.3159         0.996512         -27.137         0.996512         -27.137        0.0108691         144.796
0.954                  0.0145872        -62.5137         0.996492        -27.2886         0.996492        -27.2886        0.0108572         144.733
0.9593                 0.0145933        -62.7111         0.996472        -27.4402         0.996472        -27.4402        0.0108453          144.67
0.9646                 0.0145995        -62.9083         0.996452        -27.5917         0.996452        -27.5917        0.0108335         144.607
0.9699                 0.0146055        -63.1053         0.996431        -27.7433         0.996431        -27.7433        0.0108216         144.544
0.9752                 0.0146115         -63.302         0.996411        -27.8949         0.996411        -27.8949        0.0108097          144.48
0.9805                 0.0146175        -63.4985         0.996391        -28.0465         0.996391        -28.0465        0.0107978         144.417
0.9858                 0.0146234        -63.6947         0.996371        -28.1981         0.996371        -28.1981         0.010786         144.353
0.9911                 0.0146293        -63.8907         0.996351        -28.3496         0.996351        -28.3496        0.0107741          144.29
0.9964                 0.0146351        -64.0864          0.99633        -28.5012          0.99633        -28.5012        0.0107623         144.226