! TOUCHSTONE file generated by CST MICROWAVE STUDIO
! Date and time: Tue Jan  7 09:43:10 2020
! Project name: OSHPark_FR408_Transition2.cst
! Parameters = {GND_Plane_XMax=12.75; Cap_Disk_XOffset=0; Cap_Disk2_YCenter=-1.03; Cap_Disk_YCenter=1.03; Cap_Disk_XCenter=7.39; Cap_Disk_Radius=0.5; BottomSupport_Left_YMax=4.76; BottomSupport_Left_YMin=3.74; BottomSupport_Right_YMax=-3.74; BottomSupport_Right_YMin=-4.76; BottomSupport_XMax=11.64; BottomSupport_XMin=6.89; BottomSupport_ZMax=-1.64084; BottomSupport_ZMin=-3.58; Cu1_Thickness=0.03556; Cu2_Thickness=0.01778; Fr408Core_Thickness=1.1938; GND_Plane_Offset=2.8; PCBThickness=1.6256; Prepreg1_Zmin=-0.20574; Prepreg_Thickness=0.17018; RFTraceYMax=0.17145; RFTrace_XMax=15; RFTrace_XMin=11.46; RFTrace_YMin=-0.17145; SMA_CenterCond_Inner_XMax=11.64; SMA_CenterCond_Radius=0.6; SMA_Dielectric_InnerRadius=0.6; SMA_Dielectric_OuterRadius=2; SMA_Dielectric_XMax=5.62; SMA_Dielectric_XMin=0; SMA_Dielectric_YCenter=0; SMA_Dielectric_ZCenter=0; SMA_Footprint_Center_XMax=12.49; SMA_Footprint_Center_XMin=7.74; SMA_Footprint_Center_YMax=0.75; SMA_Footprint_Center_YMin=-0.75; SMA_OuterCond_InnerRadius=2; SMA_OuterCond_OuterRadius=3; SMA_OuterCond_XMax=6.89; SMA_XMax=6.67; SMA_XMin=0; SMA_YCenter=0; SMA_ZCenter=0; TopSupport_ZMax=1.02; TopSupport_ZMin=0; Via1_XCenter=7.5; Via1_YCenter=-4.25; Via2_XCenter=8.75; Via2_YCenter=-4.25; Via3_XCenter=10; Via3_YCenter=-4.25; Via4_XCenter=11.25; Via4_YCenter=-4.25; Via5_XCenter=7.5; Via5_YCenter=4.25; Via6_XCenter=8.75; Via6_YCenter=4.25; Via7_XCenter=10; Via7_YCenter=4.25; Via8_XCenter=11.25; Via8_YCenter=4.25; ViaInnerRadius=0; ViaOuterRadius=0.381}
! Header version: 2015
! Port assignment regex: !\s*Touchstone port\s*([0-9]+)\s*=\s*CST MWS port\s*([0-9]+)\s*\(\"(.*)\"\)(\s*mode\s*([0-9]+))?.*
! Touchstone port assignment:
! Touchstone port 1 = CST MWS port 1 ("")
! Touchstone port 2 = CST MWS port 2 ("")
# GHz S MA R 50
0                       0.192405             180          1.20483               0          1.20483               0         0.217357             180
0.0053                 0.0121591        -23.3695         0.999938       -0.159302         0.999938       -0.159302        0.0124301         153.882
0.0106                 0.0121366        -23.2855         0.999923       -0.306377         0.999923       -0.306377          0.01245         153.504
0.0159                 0.0120945        -22.9342         0.999909       -0.456895         0.999909       -0.456895        0.0125009         152.886
0.0212                 0.0120464        -22.5165         0.999895       -0.608276         0.999895       -0.608276        0.0125584         152.207
0.0265                 0.0119959        -22.0705          0.99988       -0.760001          0.99988       -0.760001        0.0126183         151.506
0.0318                 0.0119459        -21.6057         0.999866       -0.911899         0.999866       -0.911899         0.012681         150.798
0.0371                 0.0118953        -21.1307         0.999852         -1.0639         0.999852         -1.0639        0.0127445         150.085
0.0424                  0.011843        -20.6511         0.999837        -1.21595         0.999837        -1.21595        0.0128069         149.367
0.0477                 0.0117922        -20.1619         0.999823        -1.36805         0.999823        -1.36805        0.0128713         148.653
0.053                  0.0117432        -19.6643         0.999809        -1.52018         0.999809        -1.52018        0.0129375         147.943
0.0583                 0.0116964        -19.1583         0.999794        -1.67233         0.999794        -1.67233        0.0130057         147.239
0.0636                 0.0116501        -18.6472          0.99978         -1.8245          0.99978         -1.8245        0.0130744         146.538
0.0689                 0.0116046        -18.1312         0.999765        -1.97667         0.999765        -1.97667        0.0131436          145.84
0.0742                 0.0115601        -17.6099         0.999751        -2.12886         0.999751        -2.12886        0.0132136         145.145
0.0795                 0.0115168        -17.0835         0.999736        -2.28105         0.999736        -2.28105        0.0132845         144.455
0.0848                 0.0114747        -16.5519         0.999721        -2.43325         0.999721        -2.43325        0.0133562          143.77
0.0901                 0.0114338        -16.0155         0.999706        -2.58546         0.999706        -2.58546        0.0134286         143.088
0.0954                 0.0113941        -15.4746         0.999692        -2.73767         0.999692        -2.73767        0.0135018         142.411
0.1007                 0.0113556        -14.9291         0.999677        -2.88988         0.999677        -2.88988        0.0135757         141.738
0.106                  0.0113184        -14.3792         0.999662         -3.0421         0.999662         -3.0421        0.0136503          141.07
0.1113                 0.0112824         -13.825         0.999647        -3.19432         0.999647        -3.19432        0.0137256         140.406
0.1166                 0.0112477        -13.2666         0.999632        -3.34654         0.999632        -3.34654        0.0138016         139.746
0.1219                 0.0112143        -12.7043         0.999617        -3.49877         0.999617        -3.49877        0.0138783          139.09
0.1272                 0.0111822         -12.138         0.999602        -3.65099         0.999602        -3.65099        0.0139556         138.439
0.1325                 0.0111514        -11.5679         0.999587        -3.80322         0.999587        -3.80322        0.0140335         137.792
0.1378                 0.0111219        -10.9941         0.999572        -3.95545         0.999572        -3.95545        0.0141121         137.149
0.1431                 0.0110938        -10.4168         0.999556        -4.10768         0.999556        -4.10768        0.0141914         136.511
0.1484                  0.011067        -9.83616         0.999541        -4.25991         0.999541        -4.25991        0.0142712         135.876
0.1537                 0.0110416        -9.25224         0.999526        -4.41215         0.999526        -4.41215        0.0143516         135.246
0.159                  0.0110176        -8.66521          0.99951        -4.56438          0.99951        -4.56438        0.0144327          134.62
0.1643                  0.010995        -8.07521         0.999495        -4.71661         0.999495        -4.71661        0.0145143         133.998
0.1696                 0.0109737         -7.4824          0.99948        -4.86885          0.99948        -4.86885        0.0145964          133.38
0.1749                 0.0109539        -6.88692         0.999464        -5.02109         0.999464        -5.02109        0.0146792         132.765
0.1802                 0.0109355        -6.28894         0.999449        -5.17332         0.999449        -5.17332        0.0147625         132.155
0.1855                 0.0109185        -5.68861         0.999433        -5.32556         0.999433        -5.32556        0.0148463         131.549
0.1908                  0.010903        -5.08609         0.999417         -5.4778         0.999417         -5.4778        0.0149307         130.946
0.1961                 0.0108889        -4.48154         0.999402        -5.63004         0.999402        -5.63004        0.0150156         130.348
0.2014                 0.0108763        -3.87515         0.999386        -5.78228         0.999386        -5.78228         0.015101         129.753
0.2067                 0.0108651        -3.26708          0.99937        -5.93452          0.99937        -5.93452        0.0151869         129.162
0.212                  0.0108554        -2.65749         0.999354        -6.08676         0.999354        -6.08676        0.0152733         128.574
0.2173                 0.0108471        -2.04658         0.999339          -6.239         0.999339          -6.239        0.0153602         127.991
0.2226                 0.0108404         -1.4345         0.999323        -6.39124         0.999323        -6.39124        0.0154476          127.41
0.2279                 0.0108351       -0.821454         0.999307        -6.54348         0.999307        -6.54348        0.0155355         126.834
0.2332                 0.0108313       -0.207608         0.999291        -6.69572         0.999291        -6.69572        0.0156238         126.261
0.2385                  0.010829        0.406852         0.999275        -6.84797         0.999275        -6.84797        0.0157126         125.691
0.2438                 0.0108281         1.02174         0.999258        -7.00021         0.999258        -7.00021        0.0158018         125.125
0.2491                 0.0108288         1.63687         0.999242        -7.15245         0.999242        -7.15245        0.0158915         124.562
0.2544                  0.010831         2.25207         0.999226         -7.3047         0.999226         -7.3047        0.0159817         124.003
0.2597                 0.0108346         2.86716          0.99921        -7.45694          0.99921        -7.45694        0.0160722         123.447
0.265                  0.0108398         3.48193         0.999194        -7.60918         0.999194        -7.60918        0.0161632         122.894
0.2703                 0.0108464         4.09622         0.999177        -7.76143         0.999177        -7.76143        0.0162546         122.345
0.2756                 0.0108546         4.70983         0.999161        -7.91367         0.999161        -7.91367        0.0163465         121.798
0.2809                 0.0108642          5.3226         0.999144        -8.06592         0.999144        -8.06592        0.0164387         121.255
0.2862                 0.0108753         5.93434         0.999128        -8.21817         0.999128        -8.21817        0.0165313         120.715
0.2915                  0.010888         6.54487         0.999111        -8.37041         0.999111        -8.37041        0.0166243         120.178
0.2968                 0.0109021         7.15401         0.999095        -8.52266         0.999095        -8.52266        0.0167178         119.644
0.3021                 0.0109176         7.76158         0.999078         -8.6749         0.999078         -8.6749        0.0168116         119.114
0.3074                 0.0109347         8.36743         0.999062        -8.82715         0.999062        -8.82715        0.0169057         118.586
0.3127                 0.0109532         8.97139         0.999045         -8.9794         0.999045         -8.9794        0.0170003         118.061
0.318                  0.0109732         9.57328         0.999028        -9.13164         0.999028        -9.13164        0.0170952         117.539
0.3233                 0.0109947         10.1729         0.999011        -9.28389         0.999011        -9.28389        0.0171905         117.019
0.3286                 0.0110176         10.7702         0.998994        -9.43614         0.998994        -9.43614        0.0172861         116.503
0.3339                  0.011042         11.3649         0.998977        -9.58839         0.998977        -9.58839        0.0173821         115.989
0.3392                 0.0110678         11.9569          0.99896        -9.74063          0.99896        -9.74063        0.0174785         115.478
0.3445                  0.011095         12.5461         0.998943        -9.89288         0.998943        -9.89288        0.0175751          114.97
0.3498                 0.0111236         13.1323         0.998926        -10.0451         0.998926        -10.0451        0.0176721         114.465
0.3551                 0.0111537         13.7153         0.998909        -10.1974         0.998909        -10.1974        0.0177695         113.962
0.3604                 0.0111852         14.2951         0.998892        -10.3496         0.998892        -10.3496        0.0178672         113.461
0.3657                 0.0112181         14.8715         0.998875        -10.5019         0.998875        -10.5019        0.0179652         112.964
0.371                  0.0112523         15.4444         0.998858        -10.6541         0.998858        -10.6541        0.0180635         112.468
0.3763                  0.011288         16.0136          0.99884        -10.8064          0.99884        -10.8064        0.0181621         111.976
0.3816                  0.011325         16.5791         0.998823        -10.9586         0.998823        -10.9586        0.0182611         111.486
0.3869                 0.0113633         17.1407         0.998806        -11.1109         0.998806        -11.1109        0.0183603         110.998
0.3922                  0.011403         17.6983         0.998788        -11.2631         0.998788        -11.2631        0.0184599         110.512
0.3975                 0.0114441         18.2519         0.998771        -11.4154         0.998771        -11.4154        0.0185597         110.029
0.4028                 0.0114864         18.8012         0.998753        -11.5676         0.998753        -11.5676        0.0186599         109.549
0.4081                 0.0115301         19.3463         0.998736        -11.7199         0.998736        -11.7199        0.0187603          109.07
0.4134                  0.011575          19.887         0.998718        -11.8721         0.998718        -11.8721        0.0188611         108.594
0.4187                 0.0116213         20.4233           0.9987        -12.0244           0.9987        -12.0244        0.0189621          108.12
0.424                  0.0116688         20.9551         0.998683        -12.1766         0.998683        -12.1766        0.0190634         107.649
0.4293                 0.0117176         21.4823         0.998665        -12.3289         0.998665        -12.3289         0.019165         107.179
0.4346                 0.0117676         22.0048         0.998647        -12.4811         0.998647        -12.4811        0.0192668         106.712
0.4399                 0.0118188         22.5226         0.998629        -12.6334         0.998629        -12.6334         0.019369         106.247
0.4452                 0.0118713         23.0357         0.998611        -12.7856         0.998611        -12.7856        0.0194714         105.784
0.4505                 0.0119249         23.5439         0.998593        -12.9379         0.998593        -12.9379         0.019574         105.323
0.4558                 0.0119798         24.0472         0.998575        -13.0901         0.998575        -13.0901         0.019677         104.864
0.4611                 0.0120358         24.5456         0.998557        -13.2424         0.998557        -13.2424        0.0197801         104.407
0.4664                  0.012093          25.039         0.998539        -13.3947         0.998539        -13.3947        0.0198836         103.952
0.4717                 0.0121513         25.5275         0.998521        -13.5469         0.998521        -13.5469        0.0199873         103.499
0.477                  0.0122108         26.0109         0.998503        -13.6992         0.998503        -13.6992        0.0200912         103.048
0.4823                 0.0122714         26.4893         0.998485        -13.8514         0.998485        -13.8514        0.0201954         102.599
0.4876                 0.0123331         26.9626         0.998466        -14.0037         0.998466        -14.0037        0.0202999         102.152
0.4929                 0.0123959         27.4307         0.998448        -14.1559         0.998448        -14.1559        0.0204046         101.707
0.4982                 0.0124598         27.8938         0.998429        -14.3082         0.998429        -14.3082        0.0205095         101.263
0.5035                 0.0125247         28.3518         0.998411        -14.4604         0.998411        -14.4604        0.0206147         100.822
0.5088                 0.0125907         28.8046         0.998393        -14.6127         0.998393        -14.6127        0.0207201         100.382
0.5141                 0.0126578         29.2523         0.998374        -14.7649         0.998374        -14.7649        0.0208257          99.944
0.5194                 0.0127258         29.6948         0.998355        -14.9172         0.998355        -14.9172        0.0209316         99.5077
0.5247                 0.0127949         30.1322         0.998337        -15.0695         0.998337        -15.0695        0.0210377         99.0732
0.53                   0.0128649         30.5645         0.998318        -15.2217         0.998318        -15.2217         0.021144         98.6404
0.5353                  0.012936         30.9916         0.998299         -15.374         0.998299         -15.374        0.0212506         98.2092
0.5406                  0.013008         31.4136         0.998281        -15.5262         0.998281        -15.5262        0.0213574         97.7798
0.5459                  0.013081         31.8306         0.998262        -15.6785         0.998262        -15.6785        0.0214644         97.3519
0.5512                 0.0131549         32.2424         0.998243        -15.8307         0.998243        -15.8307        0.0215716         96.9257
0.5565                 0.0132297         32.6492         0.998224         -15.983         0.998224         -15.983        0.0216791         96.5011
0.5618                 0.0133055         33.0509         0.998205        -16.1352         0.998205        -16.1352        0.0217867         96.0781
0.5671                 0.0133822         33.4475         0.998186        -16.2875         0.998186        -16.2875        0.0218946         95.6566
0.5724                 0.0134597         33.8392         0.998167        -16.4398         0.998167        -16.4398        0.0220027         95.2367
0.5777                 0.0135382         34.2259         0.998148         -16.592         0.998148         -16.592         0.022111         94.8183
0.583                  0.0136175         34.6076         0.998129        -16.7443         0.998129        -16.7443        0.0222195         94.4014
0.5883                 0.0136976         34.9844         0.998109        -16.8965         0.998109        -16.8965        0.0223282         93.9861
0.5936                 0.0137786         35.3563          0.99809        -17.0488          0.99809        -17.0488        0.0224371         93.5722
0.5989                 0.0138605         35.7234         0.998071         -17.201         0.998071         -17.201        0.0225462         93.1597
0.6042                 0.0139431         36.0856         0.998051        -17.3533         0.998051        -17.3533        0.0226556         92.7487
0.6095                 0.0140265         36.4431         0.998032        -17.5056         0.998032        -17.5056        0.0227651          92.339
0.6148                 0.0141108         36.7957         0.998012        -17.6578         0.998012        -17.6578        0.0228748         91.9308
0.6201                 0.0141958         37.1437         0.997993        -17.8101         0.997993        -17.8101        0.0229848          91.524
0.6254                 0.0142816         37.4869         0.997973        -17.9623         0.997973        -17.9623        0.0230949         91.1185
0.6307                 0.0143682         37.8256         0.997954        -18.1146         0.997954        -18.1146        0.0232052         90.7144
0.636                  0.0144555         38.1596         0.997934        -18.2669         0.997934        -18.2669        0.0233157         90.3116
0.6413                 0.0145436         38.4891         0.997914        -18.4191         0.997914        -18.4191        0.0234264         89.9102
0.6466                 0.0146324          38.814         0.997895        -18.5714         0.997895        -18.5714        0.0235373           89.51
0.6519                 0.0147219         39.1345         0.997875        -18.7236         0.997875        -18.7236        0.0236484         89.1111
0.6572                 0.0148121         39.4505         0.997855        -18.8759         0.997855        -18.8759        0.0237597         88.7135
0.6625                  0.014903         39.7622         0.997835        -19.0282         0.997835        -19.0282        0.0238712         88.3172
0.6678                 0.0149946         40.0695         0.997815        -19.1804         0.997815        -19.1804        0.0239828         87.9221
0.6731                 0.0150869         40.3725         0.997795        -19.3327         0.997795        -19.3327        0.0240947         87.5282
0.6784                 0.0151798         40.6712         0.997775        -19.4849         0.997775        -19.4849        0.0242067         87.1355
0.6837                 0.0152734         40.9657         0.997755        -19.6372         0.997755        -19.6372        0.0243189          86.744
0.689                  0.0153677         41.2561         0.997735        -19.7895         0.997735        -19.7895        0.0244313         86.3537
0.6943                 0.0154626         41.5423         0.997715        -19.9417         0.997715        -19.9417        0.0245439         85.9646
0.6996                 0.0155581         41.8244         0.997694         -20.094         0.997694         -20.094        0.0246567         85.5767
0.7049                 0.0156542         42.1026         0.997674        -20.2462         0.997674        -20.2462        0.0247696         85.1899
0.7102                  0.015751         42.3767         0.997654        -20.3985         0.997654        -20.3985        0.0248827         84.8042
0.7155                 0.0158484         42.6469         0.997633        -20.5508         0.997633        -20.5508         0.024996         84.4196
0.7208                 0.0159464         42.9132         0.997613         -20.703         0.997613         -20.703        0.0251095         84.0362
0.7261                 0.0160449         43.1756         0.997592        -20.8553         0.997592        -20.8553        0.0252231         83.6538
0.7314                  0.016144         43.4342         0.997572        -21.0075         0.997572        -21.0075        0.0253369         83.2725
0.7367                 0.0162438         43.6891         0.997551        -21.1598         0.997551        -21.1598        0.0254509         82.8923
0.742                   0.016344         43.9403          0.99753        -21.3121          0.99753        -21.3121        0.0255651         82.5131
0.7473                 0.0164449         44.1877          0.99751        -21.4643          0.99751        -21.4643        0.0256795          82.135
0.7526                 0.0165463         44.4316         0.997489        -21.6166         0.997489        -21.6166         0.025794          81.758
0.7579                 0.0166482         44.6718         0.997468        -21.7689         0.997468        -21.7689        0.0259087         81.3819
0.7632                 0.0167506         44.9086         0.997447        -21.9211         0.997447        -21.9211        0.0260235         81.0069
0.7685                 0.0168536         45.1418         0.997426        -22.0734         0.997426        -22.0734        0.0261386         80.6328
0.7738                 0.0169572         45.3716         0.997405        -22.2256         0.997405        -22.2256        0.0262538         80.2598
0.7791                 0.0170612         45.5979         0.997384        -22.3779         0.997384        -22.3779        0.0263691         79.8877
0.7844                 0.0171657         45.8209         0.997363        -22.5302         0.997363        -22.5302        0.0264847         79.5166
0.7897                 0.0172708         46.0406         0.997342        -22.6824         0.997342        -22.6824        0.0266004         79.1465
0.795                  0.0173763          46.257         0.997321        -22.8347         0.997321        -22.8347        0.0267162         78.7773
0.8003                 0.0174823         46.4702           0.9973         -22.987           0.9973         -22.987        0.0268323          78.409
0.8056                 0.0175888         46.6801         0.997279        -23.1392         0.997279        -23.1392        0.0269485         78.0417
0.8109                 0.0176958         46.8869         0.997257        -23.2915         0.997257        -23.2915        0.0270649         77.6753
0.8162                 0.0178033         47.0906         0.997236        -23.4438         0.997236        -23.4438        0.0271814         77.3098
0.8215                 0.0179112         47.2912         0.997215         -23.596         0.997215         -23.596        0.0272981         76.9452
0.8268                 0.0180196         47.4888         0.997193        -23.7483         0.997193        -23.7483         0.027415         76.5815
0.8321                 0.0181284         47.6833         0.997172        -23.9006         0.997172        -23.9006         0.027532         76.2187
0.8374                 0.0182377          47.875          0.99715        -24.0528          0.99715        -24.0528        0.0276492         75.8567
0.8427                 0.0183474         48.0637         0.997129        -24.2051         0.997129        -24.2051        0.0277665         75.4956
0.848                  0.0184576         48.2495         0.997107        -24.3574         0.997107        -24.3574         0.027884         75.1354
0.8533                 0.0185682         48.4325         0.997085        -24.5096         0.997085        -24.5096        0.0280017          74.776
0.8586                 0.0186792         48.6126         0.997063        -24.6619         0.997063        -24.6619        0.0281195         74.4175
0.8639                 0.0187907           48.79         0.997042        -24.8142         0.997042        -24.8142        0.0282375         74.0597
0.8692                 0.0189025         48.9647          0.99702        -24.9664          0.99702        -24.9664        0.0283557         73.7028
0.8745                 0.0190148         49.1366         0.996998        -25.1187         0.996998        -25.1187         0.028474         73.3467
0.8798                 0.0191275         49.3059         0.996976         -25.271         0.996976         -25.271        0.0285925         72.9915
0.8851                 0.0192406         49.4726         0.996954        -25.4232         0.996954        -25.4232        0.0287111          72.637
0.8904                 0.0193541         49.6367         0.996932        -25.5755         0.996932        -25.5755        0.0288299         72.2833
0.8957                  0.019468         49.7982          0.99691        -25.7278          0.99691        -25.7278        0.0289488         71.9303
0.901                  0.0195822         49.9572         0.996887          -25.88         0.996887          -25.88        0.0290679         71.5782
0.9063                 0.0196969         50.1137         0.996865        -26.0323         0.996865        -26.0323        0.0291872         71.2268
0.9116                  0.019812         50.2678         0.996843        -26.1846         0.996843        -26.1846        0.0293066         70.8762
0.9169                 0.0199274         50.4194         0.996821        -26.3368         0.996821        -26.3368        0.0294262         70.5263
0.9222                 0.0200432         50.5686         0.996798        -26.4891         0.996798        -26.4891        0.0295459         70.1772
0.9275                 0.0201593         50.7155         0.996776        -26.6414         0.996776        -26.6414        0.0296658         69.8288
0.9328                 0.0202759           50.86         0.996753        -26.7936         0.996753        -26.7936        0.0297858         69.4812
0.9381                 0.0203928         51.0022         0.996731        -26.9459         0.996731        -26.9459         0.029906         69.1343
0.9434                   0.02051         51.1422         0.996708        -27.0982         0.996708        -27.0982        0.0300264          68.788
0.9487                 0.0206276         51.2799         0.996686        -27.2504         0.996686        -27.2504        0.0301469         68.4425
0.954                  0.0207456         51.4154         0.996663        -27.4027         0.996663        -27.4027        0.0302675         68.0977
0.9593                 0.0208639         51.5487          0.99664         -27.555          0.99664         -27.555        0.0303884         67.7536
0.9646                 0.0209826         51.6799         0.996618        -27.7072         0.996618        -27.7072        0.0305093         67.4102
0.9699                 0.0211016         51.8089         0.996595        -27.8595         0.996595        -27.8595        0.0306304         67.0675
0.9752                 0.0212209         51.9358         0.996572        -28.0118         0.996572        -28.0118        0.0307517         66.7255
0.9805                 0.0213406         52.0607         0.996549         -28.164         0.996549         -28.164        0.0308731         66.3841
0.9858                 0.0214606         52.1835         0.996526        -28.3163         0.996526        -28.3163        0.0309947         66.0434
0.9911                 0.0215809         52.3043         0.996503        -28.4686         0.996503        -28.4686        0.0311165         65.7034
0.9964                 0.0217016         52.4231          0.99648        -28.6208          0.99648        -28.6208        0.0312383          65.364