! TOUCHSTONE file generated by CST MICROWAVE STUDIO
! Date and time: Tue Jan  7 09:43:15 2020
! Project name: OSHPark_FR408_Transition2.cst
! Parameters = {GND_Plane_XMax=11.75; Cap_Disk_XOffset=0; Cap_Disk2_YCenter=-1.03; Cap_Disk_YCenter=1.03; Cap_Disk_XCenter=7.39; Cap_Disk_Radius=0.5; BottomSupport_Left_YMax=4.76; BottomSupport_Left_YMin=3.74; BottomSupport_Right_YMax=-3.74; BottomSupport_Right_YMin=-4.76; BottomSupport_XMax=11.64; BottomSupport_XMin=6.89; BottomSupport_ZMax=-1.64084; BottomSupport_ZMin=-3.58; Cu1_Thickness=0.03556; Cu2_Thickness=0.01778; Fr408Core_Thickness=1.1938; GND_Plane_Offset=2.825; PCBThickness=1.6256; Prepreg1_Zmin=-0.20574; Prepreg_Thickness=0.17018; RFTraceYMax=0.17145; RFTrace_XMax=15; RFTrace_XMin=11.46; RFTrace_YMin=-0.17145; SMA_CenterCond_Inner_XMax=11.64; SMA_CenterCond_Radius=0.6; SMA_Dielectric_InnerRadius=0.6; SMA_Dielectric_OuterRadius=2; SMA_Dielectric_XMax=5.62; SMA_Dielectric_XMin=0; SMA_Dielectric_YCenter=0; SMA_Dielectric_ZCenter=0; SMA_Footprint_Center_XMax=12.49; SMA_Footprint_Center_XMin=7.74; SMA_Footprint_Center_YMax=0.75; SMA_Footprint_Center_YMin=-0.75; SMA_OuterCond_InnerRadius=2; SMA_OuterCond_OuterRadius=3; SMA_OuterCond_XMax=6.89; SMA_XMax=6.67; SMA_XMin=0; SMA_YCenter=0; SMA_ZCenter=0; TopSupport_ZMax=1.02; TopSupport_ZMin=0; Via1_XCenter=7.5; Via1_YCenter=-4.25; Via2_XCenter=8.75; Via2_YCenter=-4.25; Via3_XCenter=10; Via3_YCenter=-4.25; Via4_XCenter=11.25; Via4_YCenter=-4.25; Via5_XCenter=7.5; Via5_YCenter=4.25; Via6_XCenter=8.75; Via6_YCenter=4.25; Via7_XCenter=10; Via7_YCenter=4.25; Via8_XCenter=11.25; Via8_YCenter=4.25; ViaInnerRadius=0; ViaOuterRadius=0.381}
! Header version: 2015
! Port assignment regex: !\s*Touchstone port\s*([0-9]+)\s*=\s*CST MWS port\s*([0-9]+)\s*\(\"(.*)\"\)(\s*mode\s*([0-9]+))?.*
! Touchstone port assignment:
! Touchstone port 1 = CST MWS port 1 ("")
! Touchstone port 2 = CST MWS port 2 ("")
# GHz S MA R 50
0                      0.0509932               0         0.956424               0         0.956424               0        0.0361294               0
0.0053                 0.0106507        -27.7149         0.999954         -0.1607         0.999954         -0.1607        0.0107761         151.109
0.0106                 0.0107166        -28.5766         0.999938       -0.308372         0.999938       -0.308372         0.010704         151.655
0.0159                 0.0107605        -29.1313         0.999922       -0.459546         0.999922       -0.459546        0.0106684         151.933
0.0212                 0.0107963        -29.6159         0.999906       -0.611595         0.999906       -0.611595        0.0106394         152.137
0.0265                 0.0108282        -30.0742         0.999891       -0.763995         0.999891       -0.763995        0.0106124          152.31
0.0318                   0.01086        -30.5137         0.999875        -0.91657         0.999875        -0.91657        0.0105881         152.473
0.0371                   0.01089         -30.947         0.999859        -1.06925         0.999859        -1.06925        0.0105638         152.625
0.0424                 0.0109165        -31.3843         0.999843        -1.22198         0.999843        -1.22198        0.0105368         152.765
0.0477                 0.0109441        -31.8127         0.999828        -1.37476         0.999828        -1.37476        0.0105117         152.906
0.053                   0.010973        -32.2334         0.999812        -1.52757         0.999812        -1.52757        0.0104884         153.048
0.0583                 0.0110037        -32.6454         0.999796         -1.6804         0.999796         -1.6804        0.0104674         153.195
0.0636                  0.011034         -33.056          0.99978        -1.83325          0.99978        -1.83325        0.0104463          153.34
0.0689                 0.0110641        -33.4655         0.999764        -1.98611         0.999764        -1.98611        0.0104252         153.485
0.0742                 0.0110944        -33.8727         0.999749        -2.13897         0.999749        -2.13897        0.0104044         153.629
0.0795                 0.0111249        -34.2773         0.999733        -2.29185         0.999733        -2.29185        0.0103841         153.775
0.0848                  0.011156         -34.679         0.999717        -2.44473         0.999717        -2.44473        0.0103645         153.922
0.0901                 0.0111872        -35.0785         0.999701        -2.59762         0.999701        -2.59762        0.0103453         154.069
0.0954                 0.0112188         -35.476         0.999685        -2.75051         0.999685        -2.75051        0.0103265         154.217
0.1007                 0.0112506        -35.8714         0.999669         -2.9034         0.999669         -2.9034         0.010308         154.366
0.106                  0.0112827        -36.2645         0.999653         -3.0563         0.999653         -3.0563        0.0102901         154.517
0.1113                 0.0113152        -36.6555         0.999637         -3.2092         0.999637         -3.2092        0.0102726         154.668
0.1166                  0.011348        -37.0444         0.999621         -3.3621         0.999621         -3.3621        0.0102555          154.82
0.1219                  0.011381        -37.4313         0.999604          -3.515         0.999604          -3.515        0.0102389         154.973
0.1272                 0.0114144        -37.8162         0.999588        -3.66791         0.999588        -3.66791        0.0102226         155.127
0.1325                  0.011448        -38.1991         0.999572        -3.82081         0.999572        -3.82081        0.0102068         155.282
0.1378                  0.011482        -38.5799         0.999556        -3.97372         0.999556        -3.97372        0.0101915         155.438
0.1431                 0.0115163        -38.9587          0.99954        -4.12663          0.99954        -4.12663        0.0101766         155.595
0.1484                 0.0115508        -39.3355         0.999524        -4.27954         0.999524        -4.27954        0.0101621         155.753
0.1537                 0.0115856        -39.7104         0.999507        -4.43245         0.999507        -4.43245         0.010148         155.912
0.159                  0.0116207        -40.0833         0.999491        -4.58536         0.999491        -4.58536        0.0101344         156.072
0.1643                 0.0116561        -40.4542         0.999475        -4.73828         0.999475        -4.73828        0.0101212         156.232
0.1696                 0.0116918        -40.8232         0.999458        -4.89119         0.999458        -4.89119        0.0101085         156.394
0.1749                 0.0117278        -41.1902         0.999442         -5.0441         0.999442         -5.0441        0.0100962         156.556
0.1802                  0.011764        -41.5553         0.999426        -5.19702         0.999426        -5.19702        0.0100843         156.719
0.1855                 0.0118005        -41.9184         0.999409        -5.34993         0.999409        -5.34993        0.0100729         156.882
0.1908                 0.0118373        -42.2796         0.999393        -5.50285         0.999393        -5.50285        0.0100619         157.047
0.1961                 0.0118743        -42.6389         0.999376        -5.65576         0.999376        -5.65576        0.0100514         157.212
0.2014                 0.0119116        -42.9962          0.99936        -5.80868          0.99936        -5.80868        0.0100413         157.378
0.2067                 0.0119492        -43.3517         0.999343        -5.96159         0.999343        -5.96159        0.0100317         157.544
0.212                   0.011987        -43.7052         0.999327        -6.11451         0.999327        -6.11451        0.0100225         157.711
0.2173                 0.0120251        -44.0568          0.99931        -6.26743          0.99931        -6.26743        0.0100137         157.878
0.2226                 0.0120634        -44.4065         0.999294        -6.42034         0.999294        -6.42034        0.0100054         158.046
0.2279                  0.012102        -44.7543         0.999277        -6.57326         0.999277        -6.57326       0.00999755         158.215
0.2332                 0.0121408        -45.1003          0.99926        -6.72618          0.99926        -6.72618       0.00999014         158.384
0.2385                 0.0121799        -45.4443         0.999244         -6.8791         0.999244         -6.8791       0.00998318         158.553
0.2438                 0.0122192        -45.7865         0.999227        -7.03201         0.999227        -7.03201       0.00997668         158.723
0.2491                 0.0122587        -46.1268          0.99921        -7.18493          0.99921        -7.18493       0.00997063         158.893
0.2544                 0.0122985        -46.4653         0.999193        -7.33785         0.999193        -7.33785       0.00996502         159.063
0.2597                 0.0123385        -46.8019         0.999177        -7.49077         0.999177        -7.49077       0.00995987         159.234
0.265                  0.0123787        -47.1367          0.99916        -7.64368          0.99916        -7.64368       0.00995516         159.405
0.2703                 0.0124192        -47.4696         0.999143         -7.7966         0.999143         -7.7966       0.00995092         159.576
0.2756                 0.0124598        -47.8007         0.999126        -7.94952         0.999126        -7.94952       0.00994713         159.747
0.2809                 0.0125007          -48.13         0.999109        -8.10244         0.999109        -8.10244       0.00994379         159.919
0.2862                 0.0125418        -48.4574         0.999092        -8.25536         0.999092        -8.25536        0.0099409          160.09
0.2915                 0.0125831        -48.7831         0.999075        -8.40828         0.999075        -8.40828       0.00993845         160.262
0.2968                 0.0126246         -49.107         0.999059        -8.56119         0.999059        -8.56119       0.00993648         160.433
0.3021                 0.0126664         -49.429         0.999042        -8.71411         0.999042        -8.71411       0.00993496         160.605
0.3074                 0.0127083        -49.7493         0.999025        -8.86703         0.999025        -8.86703       0.00993388         160.776
0.3127                 0.0127504        -50.0679         0.999007        -9.01995         0.999007        -9.01995       0.00993325         160.948
0.318                  0.0127927        -50.3847          0.99899        -9.17287          0.99899        -9.17287       0.00993307         161.119
0.3233                 0.0128352        -50.6996         0.998973        -9.32578         0.998973        -9.32578       0.00993336          161.29
0.3286                  0.012878        -51.0129         0.998956         -9.4787         0.998956         -9.4787       0.00993409         161.461
0.3339                 0.0129209        -51.3244         0.998939        -9.63162         0.998939        -9.63162       0.00993527         161.631
0.3392                 0.0129639        -51.6342         0.998922        -9.78454         0.998922        -9.78454        0.0099369         161.802
0.3445                 0.0130072        -51.9423         0.998905        -9.93746         0.998905        -9.93746       0.00993897         161.972
0.3498                 0.0130506        -52.2487         0.998887        -10.0904         0.998887        -10.0904       0.00994151         162.141
0.3551                 0.0130943        -52.5533          0.99887        -10.2433          0.99887        -10.2433       0.00994449         162.311
0.3604                 0.0131381        -52.8563         0.998853        -10.3962         0.998853        -10.3962       0.00994791         162.479
0.3657                  0.013182        -53.1576         0.998836        -10.5491         0.998836        -10.5491       0.00995178         162.648
0.371                  0.0132261        -53.4573         0.998818         -10.702         0.998818         -10.702       0.00995608         162.816
0.3763                 0.0132704        -53.7552         0.998801         -10.855         0.998801         -10.855       0.00996085         162.983
0.3816                 0.0133149        -54.0515         0.998784        -11.0079         0.998784        -11.0079       0.00996606          163.15
0.3869                 0.0133595        -54.3462         0.998766        -11.1608         0.998766        -11.1608       0.00997169         163.316
0.3922                 0.0134043        -54.6392         0.998749        -11.3137         0.998749        -11.3137       0.00997777         163.481
0.3975                 0.0134492        -54.9307         0.998731        -11.4666         0.998731        -11.4666       0.00998429         163.646
0.4028                 0.0134943        -55.2205         0.998714        -11.6196         0.998714        -11.6196       0.00999125          163.81
0.4081                 0.0135396        -55.5086         0.998696        -11.7725         0.998696        -11.7725       0.00999865         163.973
0.4134                  0.013585        -55.7953         0.998679        -11.9254         0.998679        -11.9254        0.0100065         164.136
0.4187                 0.0136305        -56.0803         0.998661        -12.0783         0.998661        -12.0783        0.0100147         164.298
0.424                  0.0136762        -56.3638         0.998644        -12.2312         0.998644        -12.2312        0.0100234         164.458
0.4293                  0.013722        -56.6456         0.998626        -12.3841         0.998626        -12.3841        0.0100326         164.618
0.4346                  0.013768        -56.9259         0.998609        -12.5371         0.998609        -12.5371        0.0100421         164.777
0.4399                  0.013814        -57.2047         0.998591          -12.69         0.998591          -12.69        0.0100521         164.935
0.4452                 0.0138603         -57.482         0.998573        -12.8429         0.998573        -12.8429        0.0100625         165.093
0.4505                 0.0139066        -57.7577         0.998556        -12.9958         0.998556        -12.9958        0.0100733         165.249
0.4558                 0.0139531        -58.0319         0.998538        -13.1487         0.998538        -13.1487        0.0100845         165.404
0.4611                 0.0139997        -58.3046          0.99852        -13.3017          0.99852        -13.3017        0.0100962         165.558
0.4664                 0.0140464        -58.5759         0.998502        -13.4546         0.998502        -13.4546        0.0101083          165.71
0.4717                 0.0140933        -58.8456         0.998484        -13.6075         0.998484        -13.6075        0.0101207         165.862
0.477                  0.0141403        -59.1139         0.998467        -13.7604         0.998467        -13.7604        0.0101336         166.013
0.4823                 0.0141874        -59.3807         0.998449        -13.9133         0.998449        -13.9133        0.0101469         166.162
0.4876                 0.0142346         -59.646         0.998431        -14.0662         0.998431        -14.0662        0.0101607          166.31
0.4929                 0.0142819        -59.9099         0.998413        -14.2192         0.998413        -14.2192        0.0101748         166.457
0.4982                 0.0143293        -60.1724         0.998395        -14.3721         0.998395        -14.3721        0.0101893         166.603
0.5035                 0.0143768        -60.4335         0.998377         -14.525         0.998377         -14.525        0.0102042         166.747
0.5088                 0.0144245        -60.6931         0.998359        -14.6779         0.998359        -14.6779        0.0102195          166.89
0.5141                 0.0144722        -60.9513         0.998341        -14.8308         0.998341        -14.8308        0.0102352         167.032
0.5194                 0.0145201        -61.2082         0.998323        -14.9837         0.998323        -14.9837        0.0102513         167.172
0.5247                  0.014568        -61.4636         0.998305        -15.1367         0.998305        -15.1367        0.0102678         167.311
0.53                    0.014616        -61.7177         0.998287        -15.2896         0.998287        -15.2896        0.0102847         167.449
0.5353                 0.0146642        -61.9704         0.998269        -15.4425         0.998269        -15.4425        0.0103019         167.585
0.5406                 0.0147124        -62.2218         0.998251        -15.5954         0.998251        -15.5954        0.0103196         167.719
0.5459                 0.0147607        -62.4718         0.998233        -15.7483         0.998233        -15.7483        0.0103376         167.852
0.5512                 0.0148091        -62.7205         0.998214        -15.9012         0.998214        -15.9012         0.010356         167.984
0.5565                 0.0148576        -62.9679         0.998196        -16.0542         0.998196        -16.0542        0.0103747         168.114
0.5618                 0.0149062        -63.2139         0.998178        -16.2071         0.998178        -16.2071        0.0103939         168.243
0.5671                 0.0149549        -63.4586          0.99816          -16.36          0.99816          -16.36        0.0104134          168.37
0.5724                 0.0150036        -63.7021         0.998141        -16.5129         0.998141        -16.5129        0.0104333         168.495
0.5777                 0.0150524        -63.9442         0.998123        -16.6658         0.998123        -16.6658        0.0104535         168.619
0.583                  0.0151013        -64.1851         0.998105        -16.8187         0.998105        -16.8187        0.0104741         168.741
0.5883                 0.0151503        -64.4247         0.998086        -16.9717         0.998086        -16.9717         0.010495         168.862
0.5936                 0.0151994         -64.663         0.998068        -17.1246         0.998068        -17.1246        0.0105163         168.981
0.5989                 0.0152485        -64.9001          0.99805        -17.2775          0.99805        -17.2775        0.0105379         169.098
0.6042                 0.0152977         -65.136         0.998031        -17.4304         0.998031        -17.4304        0.0105599         169.214
0.6095                 0.0153469        -65.3706         0.998013        -17.5833         0.998013        -17.5833        0.0105822         169.327
0.6148                 0.0153963         -65.604         0.997994        -17.7362         0.997994        -17.7362        0.0106049          169.44
0.6201                 0.0154457        -65.8362         0.997976        -17.8891         0.997976        -17.8891        0.0106279          169.55
0.6254                 0.0154951        -66.0672         0.997957        -18.0421         0.997957        -18.0421        0.0106513         169.659
0.6307                 0.0155446         -66.297         0.997939         -18.195         0.997939         -18.195        0.0106749         169.766
0.636                  0.0155942        -66.5256          0.99792        -18.3479          0.99792        -18.3479        0.0106989         169.871
0.6413                 0.0156438         -66.753         0.997901        -18.5008         0.997901        -18.5008        0.0107233         169.975
0.6466                 0.0156935        -66.9792         0.997883        -18.6537         0.997883        -18.6537        0.0107479         170.077
0.6519                 0.0157433        -67.2043         0.997864        -18.8066         0.997864        -18.8066        0.0107729         170.177
0.6572                 0.0157931        -67.4282         0.997845        -18.9595         0.997845        -18.9595        0.0107981         170.275
0.6625                 0.0158429         -67.651         0.997827        -19.1125         0.997827        -19.1125        0.0108237         170.372
0.6678                 0.0158928        -67.8726         0.997808        -19.2654         0.997808        -19.2654        0.0108496         170.466
0.6731                 0.0159428        -68.0932         0.997789        -19.4183         0.997789        -19.4183        0.0108758         170.559
0.6784                 0.0159927        -68.3126         0.997771        -19.5712         0.997771        -19.5712        0.0109023          170.65
0.6837                 0.0160428        -68.5309         0.997752        -19.7241         0.997752        -19.7241        0.0109291         170.739
0.689                  0.0160928        -68.7481         0.997733         -19.877         0.997733         -19.877        0.0109562         170.827
0.6943                  0.016143        -68.9642         0.997714        -20.0299         0.997714        -20.0299        0.0109836         170.912
0.6996                 0.0161931        -69.1792         0.997695        -20.1829         0.997695        -20.1829        0.0110113         170.996
0.7049                 0.0162433        -69.3931         0.997676        -20.3358         0.997676        -20.3358        0.0110393         171.078
0.7102                 0.0162936         -69.606         0.997657        -20.4887         0.997657        -20.4887        0.0110675         171.158
0.7155                 0.0163438        -69.8178         0.997638        -20.6416         0.997638        -20.6416         0.011096         171.236
0.7208                 0.0163941        -70.0285         0.997619        -20.7945         0.997619        -20.7945        0.0111249         171.313
0.7261                 0.0164445        -70.2382           0.9976        -20.9474           0.9976        -20.9474        0.0111539         171.387
0.7314                 0.0164948        -70.4469         0.997581        -21.1003         0.997581        -21.1003        0.0111833          171.46
0.7367                 0.0165452        -70.6545         0.997562        -21.2533         0.997562        -21.2533        0.0112129          171.53
0.742                  0.0165956        -70.8611         0.997543        -21.4062         0.997543        -21.4062        0.0112428         171.599
0.7473                 0.0166461        -71.0667         0.997524        -21.5591         0.997524        -21.5591        0.0112729         171.666
0.7526                 0.0166966        -71.2713         0.997505         -21.712         0.997505         -21.712        0.0113033         171.732
0.7579                 0.0167471        -71.4749         0.997486        -21.8649         0.997486        -21.8649         0.011334         171.795
0.7632                 0.0167976        -71.6775         0.997467        -22.0178         0.997467        -22.0178        0.0113649         171.857
0.7685                 0.0168481        -71.8791         0.997448        -22.1707         0.997448        -22.1707        0.0113961         171.916
0.7738                 0.0168987        -72.0797         0.997428        -22.3237         0.997428        -22.3237        0.0114275         171.974
0.7791                 0.0169493        -72.2793         0.997409        -22.4766         0.997409        -22.4766        0.0114591          172.03
0.7844                 0.0169999         -72.478          0.99739        -22.6295          0.99739        -22.6295         0.011491         172.084
0.7897                 0.0170505        -72.6757         0.997371        -22.7824         0.997371        -22.7824        0.0115231         172.136
0.795                  0.0171011        -72.8725         0.997351        -22.9353         0.997351        -22.9353        0.0115555         172.187
0.8003                 0.0171518        -73.0683         0.997332        -23.0882         0.997332        -23.0882        0.0115881         172.235
0.8056                 0.0172024        -73.2632         0.997313        -23.2411         0.997313        -23.2411        0.0116209         172.282
0.8109                 0.0172531        -73.4572         0.997293         -23.394         0.997293         -23.394        0.0116539         172.327
0.8162                 0.0173037        -73.6502         0.997274         -23.547         0.997274         -23.547        0.0116872          172.37
0.8215                 0.0173544        -73.8424         0.997254        -23.6999         0.997254        -23.6999        0.0117207         172.411
0.8268                 0.0174051        -74.0335         0.997235        -23.8528         0.997235        -23.8528        0.0117544          172.45
0.8321                 0.0174558        -74.2238         0.997215        -24.0057         0.997215        -24.0057        0.0117883         172.488
0.8374                 0.0175065        -74.4132         0.997196        -24.1586         0.997196        -24.1586        0.0118224         172.524
0.8427                 0.0175572        -74.6018         0.997176        -24.3115         0.997176        -24.3115        0.0118567         172.558
0.848                  0.0176079        -74.7894         0.997157        -24.4644         0.997157        -24.4644        0.0118912          172.59
0.8533                 0.0176586        -74.9761         0.997137        -24.6173         0.997137        -24.6173         0.011926          172.62
0.8586                 0.0177093         -75.162         0.997118        -24.7702         0.997118        -24.7702        0.0119609         172.648
0.8639                 0.0177601         -75.347         0.997098        -24.9232         0.997098        -24.9232         0.011996         172.675
0.8692                 0.0178108        -75.5312         0.997078        -25.0761         0.997078        -25.0761        0.0120313           172.7
0.8745                 0.0178615        -75.7145         0.997059         -25.229         0.997059         -25.229        0.0120668         172.723
0.8798                 0.0179122        -75.8969         0.997039        -25.3819         0.997039        -25.3819        0.0121025         172.745
0.8851                 0.0179629        -76.0785         0.997019        -25.5348         0.997019        -25.5348        0.0121384         172.764
0.8904                 0.0180135        -76.2593            0.997        -25.6877            0.997        -25.6877        0.0121745         172.782
0.8957                 0.0180642        -76.4392          0.99698        -25.8406          0.99698        -25.8406        0.0122107         172.798
0.901                  0.0181149        -76.6183          0.99696        -25.9935          0.99696        -25.9935        0.0122471         172.812
0.9063                 0.0181655        -76.7966          0.99694        -26.1465          0.99694        -26.1465        0.0122837         172.825
0.9116                 0.0182162        -76.9741          0.99692        -26.2994          0.99692        -26.2994        0.0123205         172.836
0.9169                 0.0182668        -77.1508         0.996901        -26.4523         0.996901        -26.4523        0.0123574         172.845
0.9222                 0.0183175        -77.3266         0.996881        -26.6052         0.996881        -26.6052        0.0123945         172.852
0.9275                 0.0183681        -77.5017         0.996861        -26.7581         0.996861        -26.7581        0.0124318         172.858
0.9328                 0.0184187         -77.676         0.996841         -26.911         0.996841         -26.911        0.0124692         172.862
0.9381                 0.0184693        -77.8494         0.996821        -27.0639         0.996821        -27.0639        0.0125068         172.864
0.9434                 0.0185198        -78.0222         0.996801        -27.2168         0.996801        -27.2168        0.0125445         172.865
0.9487                 0.0185704        -78.1941         0.996781        -27.3697         0.996781        -27.3697        0.0125824         172.863
0.954                  0.0186209        -78.3653         0.996761        -27.5226         0.996761        -27.5226        0.0126204         172.861
0.9593                 0.0186714        -78.5357         0.996741        -27.6756         0.996741        -27.6756        0.0126586         172.856
0.9646                 0.0187219        -78.7053         0.996721        -27.8285         0.996721        -27.8285         0.012697          172.85
0.9699                 0.0187724        -78.8742         0.996701        -27.9814         0.996701        -27.9814        0.0127354         172.842
0.9752                 0.0188228        -79.0423         0.996681        -28.1343         0.996681        -28.1343        0.0127741         172.833
0.9805                 0.0188732        -79.2097          0.99666        -28.2872          0.99666        -28.2872        0.0128128         172.822
0.9858                 0.0189236        -79.3763          0.99664        -28.4401          0.99664        -28.4401        0.0128517         172.809
0.9911                  0.018974        -79.5422          0.99662         -28.593          0.99662         -28.593        0.0128907         172.795
0.9964                 0.0190244        -79.7074           0.9966        -28.7459           0.9966        -28.7459        0.0129299         172.779