! TOUCHSTONE file generated by CST MICROWAVE STUDIO
! Date and time: Tue Jan  7 09:43:39 2020
! Project name: OSHPark_FR408_Transition2.cst
! Parameters = {GND_Plane_XMax=12.25; Cap_Disk_XOffset=0; Cap_Disk2_YCenter=-1.03; Cap_Disk_YCenter=1.03; Cap_Disk_XCenter=7.39; Cap_Disk_Radius=0.5; BottomSupport_Left_YMax=4.76; BottomSupport_Left_YMin=3.74; BottomSupport_Right_YMax=-3.74; BottomSupport_Right_YMin=-4.76; BottomSupport_XMax=11.64; BottomSupport_XMin=6.89; BottomSupport_ZMax=-1.64084; BottomSupport_ZMin=-3.58; Cu1_Thickness=0.03556; Cu2_Thickness=0.01778; Fr408Core_Thickness=1.1938; GND_Plane_Offset=2.875; PCBThickness=1.6256; Prepreg1_Zmin=-0.20574; Prepreg_Thickness=0.17018; RFTraceYMax=0.17145; RFTrace_XMax=15; RFTrace_XMin=11.46; RFTrace_YMin=-0.17145; SMA_CenterCond_Inner_XMax=11.64; SMA_CenterCond_Radius=0.6; SMA_Dielectric_InnerRadius=0.6; SMA_Dielectric_OuterRadius=2; SMA_Dielectric_XMax=5.62; SMA_Dielectric_XMin=0; SMA_Dielectric_YCenter=0; SMA_Dielectric_ZCenter=0; SMA_Footprint_Center_XMax=12.49; SMA_Footprint_Center_XMin=7.74; SMA_Footprint_Center_YMax=0.75; SMA_Footprint_Center_YMin=-0.75; SMA_OuterCond_InnerRadius=2; SMA_OuterCond_OuterRadius=3; SMA_OuterCond_XMax=6.89; SMA_XMax=6.67; SMA_XMin=0; SMA_YCenter=0; SMA_ZCenter=0; TopSupport_ZMax=1.02; TopSupport_ZMin=0; Via1_XCenter=7.5; Via1_YCenter=-4.25; Via2_XCenter=8.75; Via2_YCenter=-4.25; Via3_XCenter=10; Via3_YCenter=-4.25; Via4_XCenter=11.25; Via4_YCenter=-4.25; Via5_XCenter=7.5; Via5_YCenter=4.25; Via6_XCenter=8.75; Via6_YCenter=4.25; Via7_XCenter=10; Via7_YCenter=4.25; Via8_XCenter=11.25; Via8_YCenter=4.25; ViaInnerRadius=0; ViaOuterRadius=0.381}
! Header version: 2015
! Port assignment regex: !\s*Touchstone port\s*([0-9]+)\s*=\s*CST MWS port\s*([0-9]+)\s*\(\"(.*)\"\)(\s*mode\s*([0-9]+))?.*
! Touchstone port assignment:
! Touchstone port 1 = CST MWS port 1 ("")
! Touchstone port 2 = CST MWS port 2 ("")
# GHz S MA R 50
0                      0.0118873               0         0.999943               0         0.999943               0        0.0118868             180
0.0053                 0.0129142        -22.8409         0.999899       -0.158302         0.999899       -0.158302        0.0130284          155.37
0.0106                 0.0129144        -23.3265         0.999915       -0.304155         0.999915       -0.304155        0.0130274         155.561
0.0159                 0.0129178        -23.4825         0.999896       -0.453881         0.999896       -0.453881        0.0130209         155.414
0.0212                  0.012916        -23.5751         0.999876       -0.604489         0.999876       -0.604489        0.0130201         155.203
0.0265                 0.0129117        -23.6446         0.999857       -0.755429         0.999857       -0.755429        0.0130221         154.969
0.0318                 0.0129058        -23.7036         0.999838        -0.90653         0.999838        -0.90653        0.0130253         154.724
0.0371                 0.0128993        -23.7564         0.999819        -1.05772         0.999819        -1.05772        0.0130294         154.473
0.0424                  0.012893        -23.8045           0.9998        -1.20897           0.9998        -1.20897        0.0130348         154.219
0.0477                 0.0128859        -23.8508         0.999781        -1.36025         0.999781        -1.36025        0.0130401         153.962
0.053                  0.0128783         -23.896         0.999763        -1.51156         0.999763        -1.51156        0.0130453         153.702
0.0583                 0.0128699        -23.9408         0.999744        -1.66289         0.999744        -1.66289        0.0130501         153.441
0.0636                 0.0128615        -23.9845         0.999726        -1.81424         0.999726        -1.81424        0.0130551         153.179
0.0689                 0.0128529        -24.0274         0.999707        -1.96559         0.999707        -1.96559        0.0130601         152.916
0.0742                 0.0128442        -24.0698         0.999689        -2.11695         0.999689        -2.11695        0.0130652         152.652
0.0795                 0.0128353        -24.1119          0.99967        -2.26832          0.99967        -2.26832        0.0130701         152.388
0.0848                 0.0128262        -24.1537         0.999652        -2.41969         0.999652        -2.41969         0.013075         152.123
0.0901                 0.0128169        -24.1954         0.999633        -2.57106         0.999633        -2.57106        0.0130798         151.858
0.0954                 0.0128076        -24.2369         0.999615        -2.72244         0.999615        -2.72244        0.0130845         151.592
0.1007                  0.012798        -24.2783         0.999596        -2.87383         0.999596        -2.87383        0.0130891         151.326
0.106                  0.0127883        -24.3197         0.999578        -3.02521         0.999578        -3.02521        0.0130936         151.059
0.1113                 0.0127785        -24.3609         0.999559         -3.1766         0.999559         -3.1766         0.013098         150.793
0.1166                 0.0127686        -24.4021         0.999541        -3.32798         0.999541        -3.32798        0.0131023         150.525
0.1219                 0.0127585        -24.4433         0.999522        -3.47937         0.999522        -3.47937        0.0131064         150.258
0.1272                 0.0127483        -24.4844         0.999504        -3.63076         0.999504        -3.63076        0.0131105          149.99
0.1325                 0.0127379        -24.5256         0.999486        -3.78215         0.999486        -3.78215        0.0131145         149.722
0.1378                 0.0127275        -24.5667         0.999467        -3.93354         0.999467        -3.93354        0.0131183         149.454
0.1431                 0.0127169        -24.6078         0.999449        -4.08493         0.999449        -4.08493         0.013122         149.186
0.1484                 0.0127062        -24.6489          0.99943        -4.23633          0.99943        -4.23633        0.0131257         148.917
0.1537                 0.0126953          -24.69         0.999412        -4.38772         0.999412        -4.38772        0.0131292         148.648
0.159                  0.0126844        -24.7312         0.999393        -4.53911         0.999393        -4.53911        0.0131325         148.379
0.1643                 0.0126733        -24.7723         0.999375         -4.6905         0.999375         -4.6905        0.0131358         148.109
0.1696                 0.0126621        -24.8134         0.999356         -4.8419         0.999356         -4.8419         0.013139          147.84
0.1749                 0.0126508        -24.8545         0.999338        -4.99329         0.999338        -4.99329         0.013142         147.569
0.1802                 0.0126393        -24.8957         0.999319        -5.14468         0.999319        -5.14468        0.0131449         147.299
0.1855                 0.0126278        -24.9368         0.999301        -5.29607         0.999301        -5.29607        0.0131477         147.029
0.1908                 0.0126161        -24.9779         0.999282        -5.44747         0.999282        -5.44747        0.0131504         146.758
0.1961                 0.0126043        -25.0191         0.999264        -5.59886         0.999264        -5.59886         0.013153         146.487
0.2014                 0.0125924        -25.0602         0.999245        -5.75025         0.999245        -5.75025        0.0131555         146.216
0.2067                 0.0125803        -25.1013         0.999226        -5.90164         0.999226        -5.90164        0.0131578         145.944
0.212                  0.0125682        -25.1424         0.999208        -6.05304         0.999208        -6.05304          0.01316         145.672
0.2173                 0.0125559        -25.1835         0.999189        -6.20443         0.999189        -6.20443        0.0131622           145.4
0.2226                 0.0125435        -25.2246         0.999171        -6.35582         0.999171        -6.35582        0.0131642         145.128
0.2279                  0.012531        -25.2657         0.999152        -6.50721         0.999152        -6.50721        0.0131661         144.855
0.2332                 0.0125183        -25.3068         0.999134         -6.6586         0.999134         -6.6586        0.0131678         144.582
0.2385                 0.0125056        -25.3478         0.999115        -6.80999         0.999115        -6.80999        0.0131695         144.309
0.2438                 0.0124927        -25.3888         0.999096        -6.96138         0.999096        -6.96138        0.0131711         144.036
0.2491                 0.0124797        -25.4298         0.999078        -7.11277         0.999078        -7.11277        0.0131725         143.762
0.2544                 0.0124666        -25.4708         0.999059        -7.26416         0.999059        -7.26416        0.0131738         143.488
0.2597                 0.0124533        -25.5117         0.999041        -7.41555         0.999041        -7.41555         0.013175         143.214
0.265                    0.01244        -25.5526         0.999022        -7.56694         0.999022        -7.56694        0.0131761         142.939
0.2703                 0.0124265        -25.5934         0.999003        -7.71833         0.999003        -7.71833        0.0131771         142.664
0.2756                 0.0124129        -25.6342         0.998985        -7.86972         0.998985        -7.86972         0.013178         142.389
0.2809                 0.0123992        -25.6749         0.998966        -8.02111         0.998966        -8.02111        0.0131788         142.113
0.2862                 0.0123854        -25.7156         0.998947        -8.17249         0.998947        -8.17249        0.0131795         141.838
0.2915                 0.0123714        -25.7563         0.998929        -8.32388         0.998929        -8.32388          0.01318         141.562
0.2968                 0.0123574        -25.7968          0.99891        -8.47527          0.99891        -8.47527        0.0131805         141.285
0.3021                 0.0123432        -25.8373         0.998891        -8.62666         0.998891        -8.62666        0.0131808         141.009
0.3074                 0.0123289        -25.8777         0.998873        -8.77804         0.998873        -8.77804         0.013181         140.732
0.3127                 0.0123145        -25.9181         0.998854        -8.92943         0.998854        -8.92943        0.0131812         140.454
0.318                  0.0122999        -25.9584         0.998835        -9.08081         0.998835        -9.08081        0.0131812         140.177
0.3233                 0.0122853        -25.9986         0.998817         -9.2322         0.998817         -9.2322        0.0131811         139.899
0.3286                 0.0122705        -26.0387         0.998798        -9.38358         0.998798        -9.38358        0.0131809          139.62
0.3339                 0.0122556        -26.0787         0.998779        -9.53497         0.998779        -9.53497        0.0131806         139.342
0.3392                 0.0122406        -26.1187          0.99876        -9.68635          0.99876        -9.68635        0.0131802         139.063
0.3445                 0.0122254        -26.1585         0.998742        -9.83774         0.998742        -9.83774        0.0131797         138.783
0.3498                 0.0122102        -26.1982         0.998723        -9.98912         0.998723        -9.98912        0.0131791         138.504
0.3551                 0.0121948        -26.2378         0.998704        -10.1405         0.998704        -10.1405        0.0131784         138.224
0.3604                 0.0121793        -26.2773         0.998685        -10.2919         0.998685        -10.2919        0.0131776         137.943
0.3657                 0.0121637        -26.3167         0.998666        -10.4433         0.998666        -10.4433        0.0131767         137.663
0.371                   0.012148         -26.356         0.998648        -10.5946         0.998648        -10.5946        0.0131757         137.382
0.3763                 0.0121321        -26.3952         0.998629         -10.746         0.998629         -10.746        0.0131746           137.1
0.3816                 0.0121162        -26.4342          0.99861        -10.8974          0.99861        -10.8974        0.0131734         136.819
0.3869                 0.0121001         -26.473         0.998591        -11.0488         0.998591        -11.0488        0.0131721         136.536
0.3922                 0.0120839        -26.5118         0.998572        -11.2002         0.998572        -11.2002        0.0131707         136.254
0.3975                 0.0120676        -26.5504         0.998554        -11.3516         0.998554        -11.3516        0.0131693         135.971
0.4028                 0.0120511        -26.5888         0.998535        -11.5029         0.998535        -11.5029        0.0131677         135.688
0.4081                 0.0120346        -26.6271         0.998516        -11.6543         0.998516        -11.6543         0.013166         135.404
0.4134                 0.0120179        -26.6653         0.998497        -11.8057         0.998497        -11.8057        0.0131642          135.12
0.4187                 0.0120011        -26.7032         0.998478        -11.9571         0.998478        -11.9571        0.0131624         134.836
0.424                  0.0119842         -26.741         0.998459        -12.1084         0.998459        -12.1084        0.0131604         134.551
0.4293                 0.0119672        -26.7786          0.99844        -12.2598          0.99844        -12.2598        0.0131584         134.266
0.4346                 0.0119501        -26.8161         0.998421        -12.4112         0.998421        -12.4112        0.0131562          133.98
0.4399                 0.0119328        -26.8534         0.998402        -12.5626         0.998402        -12.5626         0.013154         133.694
0.4452                 0.0119154        -26.8904         0.998384         -12.714         0.998384         -12.714        0.0131517         133.408
0.4505                 0.0118979        -26.9273         0.998365        -12.8653         0.998365        -12.8653        0.0131492         133.121
0.4558                 0.0118803         -26.964         0.998346        -13.0167         0.998346        -13.0167        0.0131468         132.834
0.4611                 0.0118626        -27.0005         0.998327        -13.1681         0.998327        -13.1681        0.0131442         132.546
0.4664                 0.0118448        -27.0367         0.998308        -13.3195         0.998308        -13.3195        0.0131415         132.258
0.4717                 0.0118268        -27.0728         0.998289        -13.4708         0.998289        -13.4708        0.0131387          131.97
0.477                  0.0118087        -27.1086          0.99827        -13.6222          0.99827        -13.6222        0.0131359         131.681
0.4823                 0.0117905        -27.1442         0.998251        -13.7736         0.998251        -13.7736         0.013133         131.392
0.4876                 0.0117722        -27.1796         0.998232        -13.9249         0.998232        -13.9249          0.01313         131.102
0.4929                 0.0117538        -27.2147         0.998213        -14.0763         0.998213        -14.0763        0.0131269         130.812
0.4982                 0.0117353        -27.2496         0.998194        -14.2277         0.998194        -14.2277        0.0131237         130.521
0.5035                 0.0117166        -27.2842         0.998175        -14.3791         0.998175        -14.3791        0.0131204          130.23
0.5088                 0.0116979        -27.3186         0.998156        -14.5304         0.998156        -14.5304        0.0131171         129.939
0.5141                  0.011679        -27.3527         0.998137        -14.6818         0.998137        -14.6818        0.0131137         129.647
0.5194                   0.01166        -27.3866         0.998118        -14.8332         0.998118        -14.8332        0.0131102         129.355
0.5247                 0.0116409        -27.4202         0.998098        -14.9846         0.998098        -14.9846        0.0131066         129.062
0.53                   0.0116216        -27.4535         0.998079        -15.1359         0.998079        -15.1359         0.013103         128.768
0.5353                 0.0116023        -27.4865          0.99806        -15.2873          0.99806        -15.2873        0.0130993         128.475
0.5406                 0.0115829        -27.5192         0.998041        -15.4387         0.998041        -15.4387        0.0130955          128.18
0.5459                 0.0115633        -27.5517         0.998022          -15.59         0.998022          -15.59        0.0130916         127.886
0.5512                 0.0115436        -27.5838         0.998003        -15.7414         0.998003        -15.7414        0.0130876         127.591
0.5565                 0.0115238        -27.6157         0.997984        -15.8928         0.997984        -15.8928        0.0130836         127.295
0.5618                 0.0115039        -27.6472         0.997965        -16.0441         0.997965        -16.0441        0.0130795         126.999
0.5671                 0.0114839        -27.6784         0.997946        -16.1955         0.997946        -16.1955        0.0130754         126.702
0.5724                 0.0114637        -27.7092         0.997926        -16.3469         0.997926        -16.3469        0.0130712         126.405
0.5777                 0.0114435        -27.7398         0.997907        -16.4982         0.997907        -16.4982        0.0130669         126.107
0.583                  0.0114231          -27.77         0.997888        -16.6496         0.997888        -16.6496        0.0130625         125.809
0.5883                 0.0114027        -27.7998         0.997869         -16.801         0.997869         -16.801        0.0130581         125.511
0.5936                 0.0113821        -27.8293          0.99785        -16.9523          0.99785        -16.9523        0.0130536         125.212
0.5989                 0.0113614        -27.8585          0.99783        -17.1037          0.99783        -17.1037         0.013049         124.912
0.6042                 0.0113406        -27.8872         0.997811        -17.2551         0.997811        -17.2551        0.0130444         124.612
0.6095                 0.0113197        -27.9157         0.997792        -17.4064         0.997792        -17.4064        0.0130397         124.311
0.6148                 0.0112987        -27.9437         0.997773        -17.5578         0.997773        -17.5578         0.013035          124.01
0.6201                 0.0112775        -27.9713         0.997753        -17.7092         0.997753        -17.7092        0.0130302         123.709
0.6254                 0.0112563        -27.9985         0.997734        -17.8605         0.997734        -17.8605        0.0130253         123.407
0.6307                 0.0112349        -28.0254         0.997715        -18.0119         0.997715        -18.0119        0.0130204         123.104
0.636                  0.0112135        -28.0518         0.997696        -18.1633         0.997696        -18.1633        0.0130154         122.801
0.6413                 0.0111919        -28.0778         0.997676        -18.3146         0.997676        -18.3146        0.0130104         122.497
0.6466                 0.0111702        -28.1034         0.997657         -18.466         0.997657         -18.466        0.0130053         122.193
0.6519                 0.0111484        -28.1286         0.997638        -18.6173         0.997638        -18.6173        0.0130001         121.888
0.6572                 0.0111265        -28.1533         0.997618        -18.7687         0.997618        -18.7687        0.0129949         121.583
0.6625                 0.0111045        -28.1776         0.997599        -18.9201         0.997599        -18.9201        0.0129897         121.277
0.6678                 0.0110824        -28.2014          0.99758        -19.0714          0.99758        -19.0714        0.0129844          120.97
0.6731                 0.0110602        -28.2248          0.99756        -19.2228          0.99756        -19.2228         0.012979         120.663
0.6784                 0.0110379        -28.2477         0.997541        -19.3741         0.997541        -19.3741        0.0129736         120.356
0.6837                 0.0110155        -28.2701         0.997521        -19.5255         0.997521        -19.5255        0.0129681         120.048
0.689                  0.0109929        -28.2921         0.997502        -19.6769         0.997502        -19.6769        0.0129626         119.739
0.6943                 0.0109703        -28.3135         0.997483        -19.8282         0.997483        -19.8282        0.0129571          119.43
0.6996                 0.0109476        -28.3344         0.997463        -19.9796         0.997463        -19.9796        0.0129515          119.12
0.7049                 0.0109247        -28.3549         0.997444        -20.1309         0.997444        -20.1309        0.0129459          118.81
0.7102                 0.0109018        -28.3748         0.997424        -20.2823         0.997424        -20.2823        0.0129402         118.499
0.7155                 0.0108787        -28.3943         0.997405        -20.4337         0.997405        -20.4337        0.0129345         118.187
0.7208                 0.0108556        -28.4131         0.997385         -20.585         0.997385         -20.585        0.0129287         117.875
0.7261                 0.0108323        -28.4314         0.997366        -20.7364         0.997366        -20.7364        0.0129229         117.562
0.7314                 0.0108089        -28.4492         0.997346        -20.8877         0.997346        -20.8877        0.0129171         117.249
0.7367                 0.0107855        -28.4665         0.997327        -21.0391         0.997327        -21.0391        0.0129112         116.935
0.742                  0.0107619        -28.4831         0.997307        -21.1905         0.997307        -21.1905        0.0129053         116.621
0.7473                 0.0107383        -28.4992         0.997288        -21.3418         0.997288        -21.3418        0.0128994         116.306
0.7526                 0.0107145        -28.5147         0.997268        -21.4932         0.997268        -21.4932        0.0128934          115.99
0.7579                 0.0106907        -28.5296         0.997249        -21.6445         0.997249        -21.6445        0.0128874         115.674
0.7632                 0.0106667        -28.5439         0.997229        -21.7959         0.997229        -21.7959        0.0128814         115.357
0.7685                 0.0106426        -28.5576          0.99721        -21.9472          0.99721        -21.9472        0.0128753          115.04
0.7738                 0.0106185        -28.5707          0.99719        -22.0986          0.99719        -22.0986        0.0128692         114.721
0.7791                 0.0105942        -28.5831          0.99717        -22.2499          0.99717        -22.2499        0.0128631         114.403
0.7844                 0.0105699        -28.5949         0.997151        -22.4013         0.997151        -22.4013        0.0128569         114.083
0.7897                 0.0105455        -28.6061         0.997131        -22.5527         0.997131        -22.5527        0.0128508         113.764
0.795                  0.0105209        -28.6166         0.997112         -22.704         0.997112         -22.704        0.0128446         113.443
0.8003                 0.0104963        -28.6264         0.997092        -22.8554         0.997092        -22.8554        0.0128384         113.122
0.8056                 0.0104716        -28.6355         0.997072        -23.0067         0.997072        -23.0067        0.0128321           112.8
0.8109                 0.0104468         -28.644         0.997053        -23.1581         0.997053        -23.1581        0.0128259         112.478
0.8162                 0.0104218        -28.6518         0.997033        -23.3094         0.997033        -23.3094        0.0128196         112.155
0.8215                 0.0103968        -28.6588         0.997013        -23.4608         0.997013        -23.4608        0.0128133         111.831
0.8268                 0.0103718        -28.6651         0.996993        -23.6121         0.996993        -23.6121         0.012807         111.507
0.8321                 0.0103466        -28.6707         0.996974        -23.7635         0.996974        -23.7635        0.0128007         111.182
0.8374                 0.0103213        -28.6755         0.996954        -23.9148         0.996954        -23.9148        0.0127943         110.856
0.8427                 0.0102959        -28.6796         0.996934        -24.0662         0.996934        -24.0662         0.012788          110.53
0.848                  0.0102705         -28.683         0.996914        -24.2175         0.996914        -24.2175        0.0127816         110.203
0.8533                 0.0102449        -28.6855         0.996895        -24.3689         0.996895        -24.3689        0.0127753         109.875
0.8586                 0.0102193        -28.6873         0.996875        -24.5202         0.996875        -24.5202        0.0127689         109.547
0.8639                 0.0101936        -28.6883         0.996855        -24.6716         0.996855        -24.6716        0.0127625         109.218
0.8692                 0.0101678        -28.6884         0.996835        -24.8229         0.996835        -24.8229        0.0127561         108.889
0.8745                 0.0101419        -28.6878         0.996815        -24.9743         0.996815        -24.9743        0.0127497         108.559
0.8798                  0.010116        -28.6863         0.996796        -25.1256         0.996796        -25.1256        0.0127434         108.228
0.8851                 0.0100899        -28.6839         0.996776         -25.277         0.996776         -25.277         0.012737         107.896
0.8904                 0.0100638        -28.6807         0.996756        -25.4283         0.996756        -25.4283        0.0127306         107.564
0.8957                 0.0100376        -28.6767         0.996736        -25.5797         0.996736        -25.5797        0.0127242         107.231
0.901                  0.0100113        -28.6718         0.996716         -25.731         0.996716         -25.731        0.0127178         106.898
0.9063                0.00998489        -28.6659         0.996696        -25.8824         0.996696        -25.8824        0.0127114         106.564
0.9116                0.00995844        -28.6591         0.996676        -26.0337         0.996676        -26.0337        0.0127051         106.229
0.9169                0.00993191        -28.6515         0.996656        -26.1851         0.996656        -26.1851        0.0126987         105.893
0.9222                 0.0099053        -28.6429         0.996636        -26.3364         0.996636        -26.3364        0.0126923         105.557
0.9275                0.00987861        -28.6334         0.996617        -26.4878         0.996617        -26.4878         0.012686          105.22
0.9328                0.00985185        -28.6229         0.996597        -26.6391         0.996597        -26.6391        0.0126797         104.883
0.9381                0.00982502        -28.6114         0.996577        -26.7905         0.996577        -26.7905        0.0126733         104.545
0.9434                0.00979811         -28.599         0.996557        -26.9418         0.996557        -26.9418         0.012667         104.206
0.9487                0.00977113        -28.5855         0.996537        -27.0932         0.996537        -27.0932        0.0126608         103.866
0.954                 0.00974407        -28.5711         0.996517        -27.2445         0.996517        -27.2445        0.0126545         103.526
0.9593                0.00971695        -28.5556         0.996497        -27.3958         0.996497        -27.3958        0.0126482         103.185
0.9646                0.00968977         -28.539         0.996477        -27.5472         0.996477        -27.5472         0.012642         102.843
0.9699                 0.0096625        -28.5214         0.996456        -27.6985         0.996456        -27.6985        0.0126358         102.501
0.9752                0.00963517        -28.5028         0.996436        -27.8499         0.996436        -27.8499        0.0126296         102.158
0.9805                0.00960777        -28.4831         0.996416        -28.0012         0.996416        -28.0012        0.0126235         101.814
0.9858                0.00958032        -28.4622         0.996396        -28.1526         0.996396        -28.1526        0.0126174         101.469
0.9911                 0.0095528        -28.4402         0.996376        -28.3039         0.996376        -28.3039        0.0126113         101.124
0.9964                0.00952521        -28.4172         0.996356        -28.4553         0.996356        -28.4553        0.0126052         100.778