! TOUCHSTONE file generated by CST MICROWAVE STUDIO
! Date and time: Tue Jan  7 09:43:25 2020
! Project name: OSHPark_FR408_Transition2.cst
! Parameters = {GND_Plane_XMax=11.75; Cap_Disk_XOffset=0; Cap_Disk2_YCenter=-1.03; Cap_Disk_YCenter=1.03; Cap_Disk_XCenter=7.39; Cap_Disk_Radius=0.5; BottomSupport_Left_YMax=4.76; BottomSupport_Left_YMin=3.74; BottomSupport_Right_YMax=-3.74; BottomSupport_Right_YMin=-4.76; BottomSupport_XMax=11.64; BottomSupport_XMin=6.89; BottomSupport_ZMax=-1.64084; BottomSupport_ZMin=-3.58; Cu1_Thickness=0.03556; Cu2_Thickness=0.01778; Fr408Core_Thickness=1.1938; GND_Plane_Offset=2.85; PCBThickness=1.6256; Prepreg1_Zmin=-0.20574; Prepreg_Thickness=0.17018; RFTraceYMax=0.17145; RFTrace_XMax=15; RFTrace_XMin=11.46; RFTrace_YMin=-0.17145; SMA_CenterCond_Inner_XMax=11.64; SMA_CenterCond_Radius=0.6; SMA_Dielectric_InnerRadius=0.6; SMA_Dielectric_OuterRadius=2; SMA_Dielectric_XMax=5.62; SMA_Dielectric_XMin=0; SMA_Dielectric_YCenter=0; SMA_Dielectric_ZCenter=0; SMA_Footprint_Center_XMax=12.49; SMA_Footprint_Center_XMin=7.74; SMA_Footprint_Center_YMax=0.75; SMA_Footprint_Center_YMin=-0.75; SMA_OuterCond_InnerRadius=2; SMA_OuterCond_OuterRadius=3; SMA_OuterCond_XMax=6.89; SMA_XMax=6.67; SMA_XMin=0; SMA_YCenter=0; SMA_ZCenter=0; TopSupport_ZMax=1.02; TopSupport_ZMin=0; Via1_XCenter=7.5; Via1_YCenter=-4.25; Via2_XCenter=8.75; Via2_YCenter=-4.25; Via3_XCenter=10; Via3_YCenter=-4.25; Via4_XCenter=11.25; Via4_YCenter=-4.25; Via5_XCenter=7.5; Via5_YCenter=4.25; Via6_XCenter=8.75; Via6_YCenter=4.25; Via7_XCenter=10; Via7_YCenter=4.25; Via8_XCenter=11.25; Via8_YCenter=4.25; ViaInnerRadius=0; ViaOuterRadius=0.381}
! Header version: 2015
! Port assignment regex: !\s*Touchstone port\s*([0-9]+)\s*=\s*CST MWS port\s*([0-9]+)\s*\(\"(.*)\"\)(\s*mode\s*([0-9]+))?.*
! Touchstone port assignment:
! Touchstone port 1 = CST MWS port 1 ("")
! Touchstone port 2 = CST MWS port 2 ("")
# GHz S MA R 50
0                       0.124002               0          0.88321               0          0.88321               0         0.109552               0
0.0053                 0.0122745        -24.7051         0.999937       -0.159593         0.999937       -0.159593        0.0123627         154.488
0.0106                 0.0123422        -25.5515         0.999921       -0.307506         0.999921       -0.307506        0.0122932         155.034
0.0159                 0.0123878         -26.147         0.999905       -0.458754         0.999905       -0.458754        0.0122517         155.342
0.0212                 0.0124274        -26.6805         0.999889       -0.610834         0.999889       -0.610834        0.0122167         155.589
0.0265                 0.0124647        -27.1887         0.999873       -0.763249         0.999873       -0.763249        0.0121844         155.813
0.0318                 0.0125015        -27.6818         0.999858        -0.91583         0.999858        -0.91583        0.0121542         156.027
0.0371                 0.0125378        -28.1672         0.999842        -1.06851         0.999842        -1.06851        0.0121248         156.234
0.0424                 0.0125731        -28.6495         0.999826        -1.22124         0.999826        -1.22124        0.0120955         156.436
0.0477                 0.0126091         -29.126          0.99981        -1.37402          0.99981        -1.37402        0.0120673         156.637
0.053                  0.0126457        -29.5974         0.999794        -1.52682         0.999794        -1.52682        0.0120403         156.839
0.0583                 0.0126832        -30.0637         0.999779        -1.67964         0.999779        -1.67964        0.0120146         157.042
0.0636                 0.0127209        -30.5272         0.999763        -1.83248         0.999763        -1.83248        0.0119893         157.245
0.0689                 0.0127588         -30.988         0.999747        -1.98533         0.999747        -1.98533        0.0119646         157.448
0.0742                 0.0127972        -31.4461         0.999731        -2.13819         0.999731        -2.13819        0.0119405         157.653
0.0795                  0.012836        -31.9014         0.999715        -2.29106         0.999715        -2.29106         0.011917         157.858
0.0848                 0.0128753        -32.3539         0.999699        -2.44393         0.999699        -2.44393        0.0118942         158.065
0.0901                 0.0129151        -32.8038         0.999683         -2.5968         0.999683         -2.5968        0.0118721         158.272
0.0954                 0.0129552        -33.2512         0.999667        -2.74969         0.999667        -2.74969        0.0118505         158.481
0.1007                 0.0129958        -33.6961         0.999651        -2.90257         0.999651        -2.90257        0.0118296         158.691
0.106                  0.0130369        -34.1386         0.999635        -3.05546         0.999635        -3.05546        0.0118093         158.902
0.1113                 0.0130784        -34.5785         0.999619        -3.20835         0.999619        -3.20835        0.0117897         159.114
0.1166                 0.0131204        -35.0161         0.999602        -3.36124         0.999602        -3.36124        0.0117706         159.328
0.1219                 0.0131628        -35.4512         0.999586        -3.51413         0.999586        -3.51413        0.0117522         159.542
0.1272                 0.0132056        -35.8839          0.99957        -3.66702          0.99957        -3.66702        0.0117344         159.758
0.1325                 0.0132489        -36.3143         0.999554        -3.81992         0.999554        -3.81992        0.0117173         159.974
0.1378                 0.0132926        -36.7422         0.999538        -3.97282         0.999538        -3.97282        0.0117008         160.192
0.1431                 0.0133367        -37.1678         0.999521        -4.12572         0.999521        -4.12572        0.0116849          160.41
0.1484                 0.0133812         -37.591         0.999505        -4.27862         0.999505        -4.27862        0.0116696          160.63
0.1537                 0.0134262        -38.0119         0.999489        -4.43152         0.999489        -4.43152         0.011655          160.85
0.159                  0.0134715        -38.4305         0.999472        -4.58442         0.999472        -4.58442         0.011641         161.072
0.1643                 0.0135173        -38.8466         0.999456        -4.73732         0.999456        -4.73732        0.0116276         161.294
0.1696                 0.0135635        -39.2604         0.999439        -4.89022         0.999439        -4.89022        0.0116149         161.517
0.1749                   0.01361         -39.672         0.999423        -5.04312         0.999423        -5.04312        0.0116029         161.741
0.1802                  0.013657        -40.0812         0.999406        -5.19602         0.999406        -5.19602        0.0115914         161.965
0.1855                 0.0137043        -40.4881          0.99939        -5.34893          0.99939        -5.34893        0.0115806         162.191
0.1908                 0.0137521        -40.8926         0.999373        -5.50183         0.999373        -5.50183        0.0115705         162.416
0.1961                 0.0138002        -41.2949         0.999357        -5.65473         0.999357        -5.65473         0.011561         162.643
0.2014                 0.0138487        -41.6948          0.99934        -5.80764          0.99934        -5.80764        0.0115521          162.87
0.2067                 0.0138975        -42.0925         0.999323        -5.96054         0.999323        -5.96054        0.0115439         163.097
0.212                  0.0139467         -42.488         0.999307        -6.11345         0.999307        -6.11345        0.0115364         163.325
0.2173                 0.0139963        -42.8811          0.99929        -6.26635          0.99929        -6.26635        0.0115295         163.553
0.2226                 0.0140463        -43.2719         0.999273        -6.41926         0.999273        -6.41926        0.0115232         163.782
0.2279                 0.0140965        -43.6606         0.999257        -6.57216         0.999257        -6.57216        0.0115176         164.011
0.2332                 0.0141472        -44.0469          0.99924        -6.72507          0.99924        -6.72507        0.0115126          164.24
0.2385                 0.0141981        -44.4311         0.999223        -6.87797         0.999223        -6.87797        0.0115083         164.469
0.2438                 0.0142495         -44.813         0.999206        -7.03088         0.999206        -7.03088        0.0115047         164.699
0.2491                 0.0143011        -45.1927         0.999189        -7.18378         0.999189        -7.18378        0.0115017         164.929
0.2544                 0.0143531        -45.5701         0.999172        -7.33669         0.999172        -7.33669        0.0114993         165.158
0.2597                 0.0144053        -45.9454         0.999155        -7.48959         0.999155        -7.48959        0.0114976         165.388
0.265                   0.014458        -46.3185         0.999138         -7.6425         0.999138         -7.6425        0.0114965         165.618
0.2703                 0.0145109        -46.6894         0.999122         -7.7954         0.999122         -7.7954        0.0114961         165.847
0.2756                 0.0145641        -47.0582         0.999104        -7.94831         0.999104        -7.94831        0.0114964         166.076
0.2809                 0.0146177        -47.4248         0.999087        -8.10122         0.999087        -8.10122        0.0114973         166.306
0.2862                 0.0146715        -47.7892          0.99907        -8.25412          0.99907        -8.25412        0.0114988         166.535
0.2915                 0.0147256        -48.1515         0.999053        -8.40703         0.999053        -8.40703         0.011501         166.763
0.2968                 0.0147801        -48.5117         0.999036        -8.55993         0.999036        -8.55993        0.0115038         166.991
0.3021                 0.0148348        -48.8698         0.999019        -8.71284         0.999019        -8.71284        0.0115073         167.219
0.3074                 0.0148898        -49.2257         0.999002        -8.86574         0.999002        -8.86574        0.0115114         167.447
0.3127                  0.014945        -49.5796         0.998985        -9.01865         0.998985        -9.01865        0.0115162         167.673
0.318                  0.0150006        -49.9315         0.998967        -9.17155         0.998967        -9.17155        0.0115216           167.9
0.3233                 0.0150564        -50.2812          0.99895        -9.32446          0.99895        -9.32446        0.0115276         168.125
0.3286                 0.0151125        -50.6289         0.998933        -9.47736         0.998933        -9.47736        0.0115343          168.35
0.3339                 0.0151688        -50.9745         0.998916        -9.63027         0.998916        -9.63027        0.0115416         168.575
0.3392                 0.0152254        -51.3182         0.998898        -9.78317         0.998898        -9.78317        0.0115495         168.798
0.3445                 0.0152823        -51.6598         0.998881        -9.93608         0.998881        -9.93608        0.0115581         169.021
0.3498                 0.0153394        -51.9994         0.998863         -10.089         0.998863         -10.089        0.0115673         169.243
0.3551                 0.0153968         -52.337         0.998846        -10.2419         0.998846        -10.2419        0.0115772         169.464
0.3604                 0.0154544        -52.6727         0.998829        -10.3948         0.998829        -10.3948        0.0115876         169.684
0.3657                 0.0155122        -53.0064         0.998811        -10.5477         0.998811        -10.5477        0.0115987         169.903
0.371                  0.0155703        -53.3381         0.998794        -10.7006         0.998794        -10.7006        0.0116104         170.121
0.3763                 0.0156286        -53.6679         0.998776        -10.8535         0.998776        -10.8535        0.0116227         170.338
0.3816                 0.0156871        -53.9958         0.998758        -11.0064         0.998758        -11.0064        0.0116356         170.554
0.3869                 0.0157459        -54.3218         0.998741        -11.1593         0.998741        -11.1593        0.0116492         170.769
0.3922                 0.0158048        -54.6459         0.998723        -11.3122         0.998723        -11.3122        0.0116633         170.982
0.3975                  0.015864        -54.9681         0.998706        -11.4651         0.998706        -11.4651         0.011678         171.195
0.4028                 0.0159234        -55.2884         0.998688         -11.618         0.998688         -11.618        0.0116934         171.406
0.4081                  0.015983        -55.6069          0.99867        -11.7709          0.99867        -11.7709        0.0117094         171.615
0.4134                 0.0160428        -55.9235         0.998652        -11.9238         0.998652        -11.9238        0.0117259         171.823
0.4187                 0.0161028        -56.2383         0.998635        -12.0767         0.998635        -12.0767         0.011743          172.03
0.424                   0.016163        -56.5514         0.998617        -12.2296         0.998617        -12.2296        0.0117607         172.236
0.4293                 0.0162234        -56.8625         0.998599        -12.3825         0.998599        -12.3825        0.0117791          172.44
0.4346                  0.016284        -57.1719         0.998581        -12.5354         0.998581        -12.5354        0.0117979         172.642
0.4399                 0.0163448        -57.4796         0.998563        -12.6884         0.998563        -12.6884        0.0118174         172.843
0.4452                 0.0164057        -57.7854         0.998545        -12.8413         0.998545        -12.8413        0.0118374         173.042
0.4505                 0.0164669        -58.0896         0.998527        -12.9942         0.998527        -12.9942         0.011858          173.24
0.4558                 0.0165282         -58.392          0.99851        -13.1471          0.99851        -13.1471        0.0118792         173.436
0.4611                 0.0165897        -58.6926         0.998492           -13.3         0.998492           -13.3        0.0119009         173.631
0.4664                 0.0166513        -58.9916         0.998474        -13.4529         0.998474        -13.4529        0.0119232         173.823
0.4717                 0.0167132        -59.2889         0.998455        -13.6058         0.998455        -13.6058        0.0119461         174.014
0.477                  0.0167751        -59.5845         0.998437        -13.7587         0.998437        -13.7587        0.0119694         174.203
0.4823                 0.0168373        -59.8784         0.998419        -13.9116         0.998419        -13.9116        0.0119934         174.391
0.4876                 0.0168996        -60.1707         0.998401        -14.0645         0.998401        -14.0645        0.0120178         174.576
0.4929                 0.0169621        -60.4613         0.998383        -14.2174         0.998383        -14.2174        0.0120428          174.76
0.4982                 0.0170247        -60.7503         0.998365        -14.3703         0.998365        -14.3703        0.0120684         174.942
0.5035                 0.0170874        -61.0378         0.998347        -14.5232         0.998347        -14.5232        0.0120944         175.122
0.5088                 0.0171503        -61.3235         0.998328        -14.6761         0.998328        -14.6761         0.012121           175.3
0.5141                 0.0172134        -61.6077          0.99831         -14.829          0.99831         -14.829        0.0121481         175.476
0.5194                 0.0172765        -61.8904         0.998292        -14.9819         0.998292        -14.9819        0.0121757          175.65
0.5247                 0.0173399        -62.1715         0.998274        -15.1348         0.998274        -15.1348        0.0122038         175.822
0.53                   0.0174033         -62.451         0.998255        -15.2877         0.998255        -15.2877        0.0122324         175.992
0.5353                 0.0174669         -62.729         0.998237        -15.4406         0.998237        -15.4406        0.0122616          176.16
0.5406                 0.0175306        -63.0055         0.998218        -15.5935         0.998218        -15.5935        0.0122912         176.326
0.5459                 0.0175944        -63.2804           0.9982        -15.7464           0.9982        -15.7464        0.0123213          176.49
0.5512                 0.0176584        -63.5539         0.998182        -15.8993         0.998182        -15.8993        0.0123518         176.652
0.5565                 0.0177224        -63.8259         0.998163        -16.0522         0.998163        -16.0522        0.0123829         176.812
0.5618                 0.0177866        -64.0964         0.998145        -16.2051         0.998145        -16.2051        0.0124144          176.97
0.5671                 0.0178509        -64.3654         0.998126         -16.358         0.998126         -16.358        0.0124464         177.125
0.5724                 0.0179154         -64.633         0.998108        -16.5109         0.998108        -16.5109        0.0124789         177.279
0.5777                 0.0179799        -64.8992         0.998089        -16.6638         0.998089        -16.6638        0.0125118          177.43
0.583                  0.0180445         -65.164          0.99807        -16.8167          0.99807        -16.8167        0.0125452         177.579
0.5883                 0.0181092        -65.4273         0.998052        -16.9696         0.998052        -16.9696         0.012579         177.726
0.5936                 0.0181741        -65.6892         0.998033        -17.1225         0.998033        -17.1225        0.0126133         177.871
0.5989                  0.018239        -65.9498         0.998014        -17.2754         0.998014        -17.2754         0.012648         178.014
0.6042                  0.018304         -66.209         0.997996        -17.4283         0.997996        -17.4283        0.0126831         178.154
0.6095                 0.0183691        -66.4668         0.997977        -17.5812         0.997977        -17.5812        0.0127187         178.293
0.6148                 0.0184343        -66.7232         0.997958        -17.7341         0.997958        -17.7341        0.0127547         178.429
0.6201                 0.0184996        -66.9783         0.997939         -17.887         0.997939         -17.887        0.0127911         178.563
0.6254                  0.018565        -67.2321          0.99792        -18.0399          0.99792        -18.0399         0.012828         178.694
0.6307                 0.0186305        -67.4846         0.997902        -18.1928         0.997902        -18.1928        0.0128652         178.824
0.636                   0.018696        -67.7358         0.997883        -18.3456         0.997883        -18.3456        0.0129029         178.951
0.6413                 0.0187616        -67.9856         0.997864        -18.4985         0.997864        -18.4985        0.0129409         179.076
0.6466                 0.0188273        -68.2342         0.997845        -18.6514         0.997845        -18.6514        0.0129794         179.199
0.6519                 0.0188931        -68.4815         0.997826        -18.8043         0.997826        -18.8043        0.0130182         179.319
0.6572                 0.0189589        -68.7276         0.997807        -18.9572         0.997807        -18.9572        0.0130574         179.437
0.6625                 0.0190248        -68.9724         0.997788        -19.1101         0.997788        -19.1101         0.013097         179.553
0.6678                 0.0190908        -69.2159         0.997769         -19.263         0.997769         -19.263         0.013137         179.667
0.6731                 0.0191569        -69.4582          0.99775        -19.4159          0.99775        -19.4159        0.0131773         179.779
0.6784                  0.019223        -69.6993         0.997731        -19.5688         0.997731        -19.5688         0.013218         179.888
0.6837                 0.0192891        -69.9392         0.997712        -19.7217         0.997712        -19.7217        0.0132591         179.995
0.689                  0.0193554        -70.1779         0.997692        -19.8746         0.997692        -19.8746        0.0133005          -179.9
0.6943                 0.0194216        -70.4154         0.997673        -20.0275         0.997673        -20.0275        0.0133423        -179.797
0.6996                  0.019488        -70.6517         0.997654        -20.1804         0.997654        -20.1804        0.0133844        -179.697
0.7049                 0.0195544        -70.8869         0.997635        -20.3333         0.997635        -20.3333        0.0134269        -179.599
0.7102                 0.0196208        -71.1209         0.997616        -20.4862         0.997616        -20.4862        0.0134697        -179.502
0.7155                 0.0196873        -71.3538         0.997596        -20.6391         0.997596        -20.6391        0.0135128        -179.409
0.7208                 0.0197538        -71.5855         0.997577         -20.792         0.997577         -20.792        0.0135563        -179.317
0.7261                 0.0198204        -71.8161         0.997558        -20.9449         0.997558        -20.9449           0.0136        -179.228
0.7314                  0.019887        -72.0455         0.997538        -21.0978         0.997538        -21.0978        0.0136441        -179.141
0.7367                 0.0199537        -72.2739         0.997519        -21.2506         0.997519        -21.2506        0.0136886        -179.055
0.742                  0.0200204        -72.5012           0.9975        -21.4035           0.9975        -21.4035        0.0137333        -178.973
0.7473                 0.0200871        -72.7273          0.99748        -21.5564          0.99748        -21.5564        0.0137783        -178.892
0.7526                 0.0201539        -72.9524         0.997461        -21.7093         0.997461        -21.7093        0.0138236        -178.814
0.7579                 0.0202207        -73.1764         0.997441        -21.8622         0.997441        -21.8622        0.0138693        -178.737
0.7632                 0.0202875        -73.3994         0.997422        -22.0151         0.997422        -22.0151        0.0139152        -178.663
0.7685                 0.0203544        -73.6213         0.997402         -22.168         0.997402         -22.168        0.0139614        -178.591
0.7738                 0.0204212        -73.8421         0.997383        -22.3209         0.997383        -22.3209        0.0140079        -178.521
0.7791                 0.0204882        -74.0619         0.997363        -22.4738         0.997363        -22.4738        0.0140546        -178.453
0.7844                 0.0205551        -74.2807         0.997343        -22.6267         0.997343        -22.6267        0.0141017        -178.388
0.7897                 0.0206221        -74.4985         0.997324        -22.7796         0.997324        -22.7796         0.014149        -178.324
0.795                   0.020689        -74.7152         0.997304        -22.9325         0.997304        -22.9325        0.0141965        -178.263
0.8003                  0.020756         -74.931         0.997284        -23.0853         0.997284        -23.0853        0.0142444        -178.204
0.8056                  0.020823        -75.1457         0.997265        -23.2382         0.997265        -23.2382        0.0142925        -178.146
0.8109                 0.0208901        -75.3595         0.997245        -23.3911         0.997245        -23.3911        0.0143408        -178.091
0.8162                 0.0209571        -75.5723         0.997225         -23.544         0.997225         -23.544        0.0143894        -178.038
0.8215                 0.0210242        -75.7841         0.997205        -23.6969         0.997205        -23.6969        0.0144382        -177.987
0.8268                 0.0210912         -75.995         0.997186        -23.8498         0.997186        -23.8498        0.0144873        -177.938
0.8321                 0.0211583        -76.2049         0.997166        -24.0027         0.997166        -24.0027        0.0145366        -177.891
0.8374                 0.0212254        -76.4138         0.997146        -24.1556         0.997146        -24.1556        0.0145862        -177.846
0.8427                 0.0212925        -76.6219         0.997126        -24.3085         0.997126        -24.3085         0.014636        -177.803
0.848                  0.0213596         -76.829         0.997106        -24.4614         0.997106        -24.4614         0.014686        -177.762
0.8533                 0.0214266        -77.0351         0.997086        -24.6142         0.997086        -24.6142        0.0147362        -177.723
0.8586                 0.0214937        -77.2404         0.997066        -24.7671         0.997066        -24.7671        0.0147866        -177.686
0.8639                 0.0215608        -77.4447         0.997046          -24.92         0.997046          -24.92        0.0148373        -177.651
0.8692                 0.0216279        -77.6482         0.997026        -25.0729         0.997026        -25.0729        0.0148881        -177.618
0.8745                  0.021695        -77.8508         0.997006        -25.2258         0.997006        -25.2258        0.0149392        -177.587
0.8798                 0.0217621        -78.0524         0.996986        -25.3787         0.996986        -25.3787        0.0149905        -177.558
0.8851                 0.0218292        -78.2532         0.996966        -25.5316         0.996966        -25.5316        0.0150419        -177.531
0.8904                 0.0218962        -78.4531         0.996946        -25.6845         0.996946        -25.6845        0.0150936        -177.505
0.8957                 0.0219633        -78.6522         0.996926        -25.8373         0.996926        -25.8373        0.0151454        -177.482
0.901                  0.0220303        -78.8504         0.996906        -25.9902         0.996906        -25.9902        0.0151975         -177.46
0.9063                 0.0220973        -79.0477         0.996885        -26.1431         0.996885        -26.1431        0.0152497         -177.44
0.9116                 0.0221644        -79.2442         0.996865         -26.296         0.996865         -26.296        0.0153021        -177.422
0.9169                 0.0222314        -79.4399         0.996845        -26.4489         0.996845        -26.4489        0.0153547        -177.406
0.9222                 0.0222983        -79.6347         0.996825        -26.6018         0.996825        -26.6018        0.0154075        -177.392
0.9275                 0.0223653        -79.8288         0.996804        -26.7547         0.996804        -26.7547        0.0154604         -177.38
0.9328                 0.0224323        -80.0219         0.996784        -26.9075         0.996784        -26.9075        0.0155135        -177.369
0.9381                 0.0224992        -80.2143         0.996764        -27.0604         0.996764        -27.0604        0.0155667         -177.36
0.9434                 0.0225661        -80.4059         0.996743        -27.2133         0.996743        -27.2133        0.0156202        -177.353
0.9487                  0.022633        -80.5967         0.996723        -27.3662         0.996723        -27.3662        0.0156737        -177.348
0.954                  0.0226998        -80.7867         0.996702        -27.5191         0.996702        -27.5191        0.0157275        -177.345
0.9593                 0.0227667        -80.9759         0.996682         -27.672         0.996682         -27.672        0.0157813        -177.343
0.9646                 0.0228335        -81.1643         0.996662        -27.8248         0.996662        -27.8248        0.0158354        -177.343
0.9699                 0.0229002        -81.3519         0.996641        -27.9777         0.996641        -27.9777        0.0158896        -177.345
0.9752                  0.022967        -81.5388         0.996621        -28.1306         0.996621        -28.1306        0.0159439        -177.348
0.9805                 0.0230337        -81.7249           0.9966        -28.2835           0.9966        -28.2835        0.0159983        -177.353
0.9858                 0.0231004        -81.9103         0.996579        -28.4364         0.996579        -28.4364        0.0160529         -177.36
0.9911                  0.023167        -82.0949         0.996559        -28.5893         0.996559        -28.5893        0.0161076        -177.368
0.9964                 0.0232336        -82.2788         0.996538        -28.7421         0.996538        -28.7421        0.0161625        -177.379