! TOUCHSTONE file generated by CST MICROWAVE STUDIO
! Date and time: Tue Jan  7 09:43:24 2020
! Project name: OSHPark_FR408_Transition2.cst
! Parameters = {GND_Plane_XMax=11.5; Cap_Disk_XOffset=0; Cap_Disk2_YCenter=-1.03; Cap_Disk_YCenter=1.03; Cap_Disk_XCenter=7.39; Cap_Disk_Radius=0.5; BottomSupport_Left_YMax=4.76; BottomSupport_Left_YMin=3.74; BottomSupport_Right_YMax=-3.74; BottomSupport_Right_YMin=-4.76; BottomSupport_XMax=11.64; BottomSupport_XMin=6.89; BottomSupport_ZMax=-1.64084; BottomSupport_ZMin=-3.58; Cu1_Thickness=0.03556; Cu2_Thickness=0.01778; Fr408Core_Thickness=1.1938; GND_Plane_Offset=2.85; PCBThickness=1.6256; Prepreg1_Zmin=-0.20574; Prepreg_Thickness=0.17018; RFTraceYMax=0.17145; RFTrace_XMax=15; RFTrace_XMin=11.46; RFTrace_YMin=-0.17145; SMA_CenterCond_Inner_XMax=11.64; SMA_CenterCond_Radius=0.6; SMA_Dielectric_InnerRadius=0.6; SMA_Dielectric_OuterRadius=2; SMA_Dielectric_XMax=5.62; SMA_Dielectric_XMin=0; SMA_Dielectric_YCenter=0; SMA_Dielectric_ZCenter=0; SMA_Footprint_Center_XMax=12.49; SMA_Footprint_Center_XMin=7.74; SMA_Footprint_Center_YMax=0.75; SMA_Footprint_Center_YMin=-0.75; SMA_OuterCond_InnerRadius=2; SMA_OuterCond_OuterRadius=3; SMA_OuterCond_XMax=6.89; SMA_XMax=6.67; SMA_XMin=0; SMA_YCenter=0; SMA_ZCenter=0; TopSupport_ZMax=1.02; TopSupport_ZMin=0; Via1_XCenter=7.5; Via1_YCenter=-4.25; Via2_XCenter=8.75; Via2_YCenter=-4.25; Via3_XCenter=10; Via3_YCenter=-4.25; Via4_XCenter=11.25; Via4_YCenter=-4.25; Via5_XCenter=7.5; Via5_YCenter=4.25; Via6_XCenter=8.75; Via6_YCenter=4.25; Via7_XCenter=10; Via7_YCenter=4.25; Via8_XCenter=11.25; Via8_YCenter=4.25; ViaInnerRadius=0; ViaOuterRadius=0.381}
! Header version: 2015
! Port assignment regex: !\s*Touchstone port\s*([0-9]+)\s*=\s*CST MWS port\s*([0-9]+)\s*\(\"(.*)\"\)(\s*mode\s*([0-9]+))?.*
! Touchstone port assignment:
! Touchstone port 1 = CST MWS port 1 ("")
! Touchstone port 2 = CST MWS port 2 ("")
# GHz S MA R 50
0                        0.08401               0         0.924618               0         0.924618               0        0.0667021               0
0.0053                 0.0122968        -24.9188         0.999937       -0.161041         0.999937       -0.161041        0.0123446         154.696
0.0106                 0.0123891        -25.9762         0.999919       -0.310282         0.999919       -0.310282        0.0122576          155.47
0.0159                 0.0124546        -26.7899         0.999903       -0.462885         0.999903       -0.462885        0.0121942         155.995
0.0212                 0.0125159        -27.5358         0.999886       -0.616329         0.999886       -0.616329        0.0121394         156.465
0.0265                 0.0125769          -28.25          0.99987       -0.770108          0.99987       -0.770108        0.0120893         156.916
0.0318                 0.0126374        -28.9477         0.999853       -0.924055         0.999853       -0.924055        0.0120414         157.358
0.0371                 0.0126992        -29.6314         0.999837         -1.0781         0.999837         -1.0781        0.0119965           157.8
0.0424                 0.0127638        -30.3004          0.99982         -1.2322          0.99982         -1.2322        0.0119557         158.244
0.0477                 0.0128287        -30.9625         0.999804        -1.38634         0.999804        -1.38634         0.011916         158.689
0.053                  0.0128939        -31.6186         0.999787        -1.54051         0.999787        -1.54051        0.0118773         159.134
0.0583                 0.0129594        -32.2698         0.999771         -1.6947         0.999771         -1.6947        0.0118393         159.581
0.0636                 0.0130262        -32.9134         0.999754        -1.84891         0.999754        -1.84891        0.0118033         160.031
0.0689                 0.0130944        -33.5498         0.999737        -2.00313         0.999737        -2.00313        0.0117693         160.484
0.0742                 0.0131637        -34.1795          0.99972        -2.15735          0.99972        -2.15735        0.0117371         160.941
0.0795                 0.0132341        -34.8031         0.999704        -2.31159         0.999704        -2.31159        0.0117064           161.4
0.0848                 0.0133055        -35.4207         0.999687        -2.46582         0.999687        -2.46582        0.0116773         161.863
0.0901                  0.013378        -36.0322          0.99967        -2.62007          0.99967        -2.62007        0.0116499         162.328
0.0954                 0.0134515        -36.6375         0.999653        -2.77432         0.999653        -2.77432        0.0116241         162.796
0.1007                 0.0135261         -37.237         0.999636        -2.92857         0.999636        -2.92857        0.0116001         163.266
0.106                  0.0136017        -37.8305         0.999619        -3.08282         0.999619        -3.08282        0.0115777         163.739
0.1113                 0.0136783        -38.4182         0.999602        -3.23708         0.999602        -3.23708        0.0115569         164.214
0.1166                 0.0137558             -39         0.999585        -3.39134         0.999585        -3.39134        0.0115379         164.691
0.1219                 0.0138344        -39.5761         0.999568         -3.5456         0.999568         -3.5456        0.0115205         165.171
0.1272                 0.0139139        -40.1464         0.999551        -3.69986         0.999551        -3.69986        0.0115049         165.652
0.1325                 0.0139944        -40.7111         0.999533        -3.85412         0.999533        -3.85412        0.0114909         166.134
0.1378                 0.0140758          -41.27         0.999516        -4.00838         0.999516        -4.00838        0.0114787         166.618
0.1431                 0.0141581        -41.8234         0.999499        -4.16265         0.999499        -4.16265        0.0114681         167.104
0.1484                 0.0142413        -42.3712         0.999482        -4.31692         0.999482        -4.31692        0.0114593          167.59
0.1537                 0.0143253        -42.9134         0.999464        -4.47118         0.999464        -4.47118        0.0114522         168.077
0.159                  0.0144103        -43.4503         0.999447        -4.62545         0.999447        -4.62545        0.0114468         168.565
0.1643                  0.014496        -43.9816         0.999429        -4.77972         0.999429        -4.77972        0.0114431         169.053
0.1696                 0.0145826        -44.5076         0.999412        -4.93398         0.999412        -4.93398        0.0114411         169.541
0.1749                 0.0146701        -45.0282         0.999394        -5.08825         0.999394        -5.08825        0.0114409         170.029
0.1802                 0.0147583        -45.5436         0.999377        -5.24252         0.999377        -5.24252        0.0114423         170.518
0.1855                 0.0148473        -46.0537         0.999359        -5.39679         0.999359        -5.39679        0.0114455         171.005
0.1908                  0.014937        -46.5586         0.999342        -5.55106         0.999342        -5.55106        0.0114504         171.492
0.1961                 0.0150276        -47.0584         0.999324        -5.70533         0.999324        -5.70533        0.0114571         171.978
0.2014                 0.0151188        -47.5531         0.999306         -5.8596         0.999306         -5.8596        0.0114654         172.464
0.2067                 0.0152108        -48.0428         0.999289        -6.01387         0.999289        -6.01387        0.0114754         172.947
0.212                  0.0153035        -48.5275         0.999271        -6.16814         0.999271        -6.16814        0.0114871          173.43
0.2173                 0.0153969        -49.0072         0.999253        -6.32241         0.999253        -6.32241        0.0115005         173.911
0.2226                 0.0154909        -49.4821         0.999235        -6.47668         0.999235        -6.47668        0.0115156         174.389
0.2279                 0.0155857        -49.9522         0.999217        -6.63095         0.999217        -6.63095        0.0115324         174.866
0.2332                 0.0156811        -50.4175         0.999199        -6.78522         0.999199        -6.78522        0.0115508         175.341
0.2385                 0.0157771        -50.8782         0.999181        -6.93949         0.999181        -6.93949        0.0115709         175.813
0.2438                 0.0158737        -51.3341         0.999163        -7.09376         0.999163        -7.09376        0.0115927         176.282
0.2491                  0.015971        -51.7854         0.999145        -7.24803         0.999145        -7.24803        0.0116161         176.749
0.2544                 0.0160689        -52.2323         0.999127         -7.4023         0.999127         -7.4023        0.0116411         177.213
0.2597                 0.0161673        -52.6746         0.999109        -7.55657         0.999109        -7.55657        0.0116677         177.673
0.265                  0.0162664        -53.1125         0.999091        -7.71084         0.999091        -7.71084        0.0116959         178.131
0.2703                  0.016366         -53.546         0.999073        -7.86511         0.999073        -7.86511        0.0117258         178.584
0.2756                 0.0164662        -53.9752         0.999054        -8.01938         0.999054        -8.01938        0.0117572         179.035
0.2809                 0.0165669        -54.4002         0.999036        -8.17365         0.999036        -8.17365        0.0117901         179.481
0.2862                 0.0166681        -54.8209         0.999018        -8.32792         0.999018        -8.32792        0.0118247         179.923
0.2915                 0.0167698        -55.2375            0.999        -8.48218            0.999        -8.48218        0.0118607        -179.638
0.2968                 0.0168721        -55.6499         0.998981        -8.63645         0.998981        -8.63645        0.0118983        -179.204
0.3021                 0.0169749        -56.0583         0.998963        -8.79072         0.998963        -8.79072        0.0119374        -178.775
0.3074                 0.0170781        -56.4628         0.998944        -8.94499         0.998944        -8.94499        0.0119779        -178.349
0.3127                 0.0171818        -56.8632         0.998926        -9.09926         0.998926        -9.09926        0.0120199        -177.928
0.318                   0.017286        -57.2599         0.998907        -9.25353         0.998907        -9.25353        0.0120634        -177.512
0.3233                 0.0173907        -57.6526         0.998889         -9.4078         0.998889         -9.4078        0.0121084        -177.101
0.3286                 0.0174958        -58.0415          0.99887        -9.56206          0.99887        -9.56206        0.0121547        -176.694
0.3339                 0.0176013        -58.4268         0.998851        -9.71633         0.998851        -9.71633        0.0122025        -176.293
0.3392                 0.0177072        -58.8084         0.998833         -9.8706         0.998833         -9.8706        0.0122516        -175.897
0.3445                 0.0178136        -59.1863         0.998814        -10.0249         0.998814        -10.0249        0.0123021        -175.505
0.3498                 0.0179204        -59.5606         0.998795        -10.1791         0.998795        -10.1791         0.012354        -175.119
0.3551                 0.0180276        -59.9314         0.998776        -10.3334         0.998776        -10.3334        0.0124072        -174.738
0.3604                 0.0181351        -60.2988         0.998757        -10.4877         0.998757        -10.4877        0.0124617        -174.363
0.3657                 0.0182431        -60.6627         0.998738        -10.6419         0.998738        -10.6419        0.0125175        -173.992
0.371                  0.0183514        -61.0232         0.998719        -10.7962         0.998719        -10.7962        0.0125745        -173.628
0.3763                 0.0184601        -61.3804           0.9987        -10.9505           0.9987        -10.9505        0.0126328        -173.269
0.3816                 0.0185692        -61.7343         0.998681        -11.1047         0.998681        -11.1047        0.0126924        -172.915
0.3869                 0.0186786        -62.0849         0.998662         -11.259         0.998662         -11.259        0.0127532        -172.567
0.3922                 0.0187883        -62.4324         0.998643        -11.4133         0.998643        -11.4133        0.0128152        -172.224
0.3975                 0.0188984        -62.7767         0.998624        -11.5675         0.998624        -11.5675        0.0128783        -171.887
0.4028                 0.0190088        -63.1179         0.998605        -11.7218         0.998605        -11.7218        0.0129427        -171.556
0.4081                 0.0191196         -63.456         0.998586        -11.8761         0.998586        -11.8761        0.0130081         -171.23
0.4134                 0.0192306        -63.7912         0.998567        -12.0303         0.998567        -12.0303        0.0130747         -170.91
0.4187                 0.0193419        -64.1233         0.998547        -12.1846         0.998547        -12.1846        0.0131424        -170.595
0.424                  0.0194536        -64.4526         0.998528        -12.3388         0.998528        -12.3388        0.0132112        -170.286
0.4293                 0.0195655        -64.7789         0.998509        -12.4931         0.998509        -12.4931         0.013281        -169.983
0.4346                 0.0196777        -65.1023         0.998489        -12.6474         0.998489        -12.6474         0.013352        -169.686
0.4399                 0.0197902         -65.423          0.99847        -12.8016          0.99847        -12.8016        0.0134239        -169.394
0.4452                  0.019903        -65.7409          0.99845        -12.9559          0.99845        -12.9559        0.0134968        -169.108
0.4505                  0.020016        -66.0561         0.998431        -13.1102         0.998431        -13.1102        0.0135708        -168.827
0.4558                 0.0201293        -66.3686         0.998411        -13.2644         0.998411        -13.2644        0.0136457        -168.552
0.4611                 0.0202428        -66.6784         0.998392        -13.4187         0.998392        -13.4187        0.0137216        -168.283
0.4664                 0.0203566        -66.9857         0.998372        -13.5729         0.998372        -13.5729        0.0137984        -168.019
0.4717                 0.0204706        -67.2903         0.998352        -13.7272         0.998352        -13.7272        0.0138761         -167.76
0.477                  0.0205849        -67.5925         0.998333        -13.8815         0.998333        -13.8815        0.0139548        -167.508
0.4823                 0.0206994         -67.892         0.998313        -14.0357         0.998313        -14.0357        0.0140343         -167.26
0.4876                 0.0208141        -68.1892         0.998293          -14.19         0.998293          -14.19        0.0141148        -167.018
0.4929                  0.020929        -68.4839         0.998273        -14.3442         0.998273        -14.3442         0.014196        -166.782
0.4982                 0.0210442        -68.7763         0.998253        -14.4985         0.998253        -14.4985        0.0142781        -166.551
0.5035                 0.0211595        -69.0662         0.998234        -14.6528         0.998234        -14.6528        0.0143611        -166.325
0.5088                  0.021275        -69.3538         0.998214         -14.807         0.998214         -14.807        0.0144448        -166.104
0.5141                 0.0213908        -69.6392         0.998194        -14.9613         0.998194        -14.9613        0.0145294        -165.889
0.5194                 0.0215067        -69.9223         0.998174        -15.1155         0.998174        -15.1155        0.0146147        -165.679
0.5247                 0.0216228        -70.2031         0.998154        -15.2698         0.998154        -15.2698        0.0147008        -165.474
0.53                   0.0217391        -70.4818         0.998134        -15.4241         0.998134        -15.4241        0.0147876        -165.274
0.5353                 0.0218556        -70.7583         0.998114        -15.5783         0.998114        -15.5783        0.0148751        -165.079
0.5406                 0.0219723        -71.0326         0.998093        -15.7326         0.998093        -15.7326        0.0149634        -164.889
0.5459                 0.0220891        -71.3049         0.998073        -15.8868         0.998073        -15.8868        0.0150524        -164.704
0.5512                 0.0222061         -71.575         0.998053        -16.0411         0.998053        -16.0411         0.015142        -164.524
0.5565                 0.0223232        -71.8432         0.998033        -16.1953         0.998033        -16.1953        0.0152324        -164.349
0.5618                 0.0224405        -72.1093         0.998012        -16.3496         0.998012        -16.3496        0.0153234        -164.179
0.5671                  0.022558        -72.3734         0.997992        -16.5038         0.997992        -16.5038         0.015415        -164.014
0.5724                 0.0226756        -72.6355         0.997972        -16.6581         0.997972        -16.6581        0.0155073        -163.853
0.5777                 0.0227933        -72.8958         0.997951        -16.8124         0.997951        -16.8124        0.0156002        -163.697
0.583                  0.0229112        -73.1541         0.997931        -16.9666         0.997931        -16.9666        0.0156937        -163.545
0.5883                 0.0230292        -73.4105          0.99791        -17.1209          0.99791        -17.1209        0.0157878        -163.398
0.5936                 0.0231473         -73.665          0.99789        -17.2751          0.99789        -17.2751        0.0158825        -163.256
0.5989                 0.0232656        -73.9178         0.997869        -17.4294         0.997869        -17.4294        0.0159777        -163.118
0.6042                 0.0233839        -74.1687         0.997849        -17.5836         0.997849        -17.5836        0.0160735        -162.984
0.6095                 0.0235024        -74.4179         0.997828        -17.7379         0.997828        -17.7379        0.0161698        -162.855
0.6148                  0.023621        -74.6653         0.997807        -17.8921         0.997807        -17.8921        0.0162667         -162.73
0.6201                 0.0237398         -74.911         0.997787        -18.0464         0.997787        -18.0464        0.0163641        -162.609
0.6254                 0.0238586        -75.1549         0.997766        -18.2006         0.997766        -18.2006         0.016462        -162.493
0.6307                 0.0239775        -75.3972         0.997745        -18.3549         0.997745        -18.3549        0.0165605         -162.38
0.636                  0.0240966        -75.6378         0.997724        -18.5091         0.997724        -18.5091        0.0166594        -162.272
0.6413                 0.0242157        -75.8768         0.997704        -18.6634         0.997704        -18.6634        0.0167587        -162.168
0.6466                 0.0243349        -76.1141         0.997683        -18.8176         0.997683        -18.8176        0.0168586        -162.067
0.6519                 0.0244542        -76.3499         0.997662        -18.9719         0.997662        -18.9719        0.0169589        -161.971
0.6572                 0.0245737        -76.5841         0.997641        -19.1261         0.997641        -19.1261        0.0170597        -161.878
0.6625                 0.0246931        -76.8168          0.99762        -19.2804          0.99762        -19.2804        0.0171608         -161.79
0.6678                 0.0248127        -77.0478         0.997599        -19.4346         0.997599        -19.4346        0.0172625        -161.705
0.6731                 0.0249324        -77.2774         0.997578        -19.5889         0.997578        -19.5889        0.0173645        -161.623
0.6784                 0.0250521        -77.5055         0.997557        -19.7431         0.997557        -19.7431         0.017467        -161.546
0.6837                 0.0251719        -77.7322         0.997536        -19.8974         0.997536        -19.8974        0.0175698        -161.472
0.689                  0.0252917        -77.9574         0.997514        -20.0516         0.997514        -20.0516         0.017673        -161.401
0.6943                 0.0254117        -78.1811         0.997493        -20.2059         0.997493        -20.2059        0.0177767        -161.335
0.6996                 0.0255317        -78.4034         0.997472        -20.3601         0.997472        -20.3601        0.0178807        -161.271
0.7049                 0.0256517        -78.6243         0.997451        -20.5143         0.997451        -20.5143         0.017985        -161.211
0.7102                 0.0257718        -78.8439         0.997429        -20.6686         0.997429        -20.6686        0.0180897        -161.155
0.7155                  0.025892        -79.0621         0.997408        -20.8228         0.997408        -20.8228        0.0181948        -161.101
0.7208                 0.0260122        -79.2789         0.997387        -20.9771         0.997387        -20.9771        0.0183002        -161.051
0.7261                 0.0261325        -79.4944         0.997365        -21.1313         0.997365        -21.1313        0.0184059        -161.005
0.7314                 0.0262528        -79.7086         0.997344        -21.2856         0.997344        -21.2856         0.018512        -160.961
0.7367                 0.0263731        -79.9215         0.997322        -21.4398         0.997322        -21.4398        0.0186184        -160.921
0.742                  0.0264935        -80.1332         0.997301        -21.5941         0.997301        -21.5941         0.018725        -160.883
0.7473                  0.026614        -80.3435         0.997279        -21.7483         0.997279        -21.7483         0.018832        -160.849
0.7526                 0.0267345        -80.5527         0.997258        -21.9025         0.997258        -21.9025        0.0189393        -160.818
0.7579                  0.026855        -80.7606         0.997236        -22.0568         0.997236        -22.0568        0.0190469         -160.79
0.7632                 0.0269755        -80.9673         0.997214         -22.211         0.997214         -22.211        0.0191547        -160.764
0.7685                 0.0270961        -81.1728         0.997193        -22.3653         0.997193        -22.3653        0.0192629        -160.742
0.7738                 0.0272167        -81.3771         0.997171        -22.5195         0.997171        -22.5195        0.0193713        -160.722
0.7791                 0.0273373        -81.5802         0.997149        -22.6737         0.997149        -22.6737        0.0194799        -160.706
0.7844                  0.027458        -81.7822         0.997127         -22.828         0.997127         -22.828        0.0195888        -160.692
0.7897                 0.0275787         -81.983         0.997105        -22.9822         0.997105        -22.9822         0.019698         -160.68
0.795                  0.0276994        -82.1828         0.997084        -23.1365         0.997084        -23.1365        0.0198074        -160.672
0.8003                 0.0278201        -82.3814         0.997062        -23.2907         0.997062        -23.2907        0.0199171        -160.666
0.8056                 0.0279408        -82.5789          0.99704        -23.4449          0.99704        -23.4449        0.0200269        -160.663
0.8109                 0.0280615        -82.7753         0.997018        -23.5992         0.997018        -23.5992         0.020137        -160.662
0.8162                 0.0281823        -82.9707         0.996996        -23.7534         0.996996        -23.7534        0.0202473        -160.664
0.8215                  0.028303         -83.165         0.996974        -23.9076         0.996974        -23.9076        0.0203579        -160.668
0.8268                 0.0284238        -83.3582         0.996952        -24.0619         0.996952        -24.0619        0.0204686        -160.675
0.8321                 0.0285446        -83.5504         0.996929        -24.2161         0.996929        -24.2161        0.0205795        -160.684
0.8374                 0.0286653        -83.7416         0.996907        -24.3703         0.996907        -24.3703        0.0206907        -160.696
0.8427                 0.0287861        -83.9318         0.996885        -24.5246         0.996885        -24.5246         0.020802         -160.71
0.848                  0.0289069        -84.1209         0.996863        -24.6788         0.996863        -24.6788        0.0209135        -160.727
0.8533                 0.0290277        -84.3091         0.996841        -24.8331         0.996841        -24.8331        0.0210252        -160.745
0.8586                 0.0291484        -84.4963         0.996818        -24.9873         0.996818        -24.9873        0.0211371        -160.766
0.8639                 0.0292692        -84.6826         0.996796        -25.1415         0.996796        -25.1415        0.0212492         -160.79
0.8692                 0.0293899        -84.8679         0.996774        -25.2957         0.996774        -25.2957        0.0213614        -160.815
0.8745                 0.0295107        -85.0523         0.996751          -25.45         0.996751          -25.45        0.0214737        -160.843
0.8798                 0.0296314        -85.2357         0.996729        -25.6042         0.996729        -25.6042        0.0215863        -160.872
0.8851                 0.0297521        -85.4182         0.996706        -25.7584         0.996706        -25.7584         0.021699        -160.904
0.8904                 0.0298728        -85.5998         0.996684        -25.9127         0.996684        -25.9127        0.0218118        -160.938
0.8957                 0.0299935        -85.7805         0.996661        -26.0669         0.996661        -26.0669        0.0219248        -160.974
0.901                  0.0301141        -85.9603         0.996639        -26.2211         0.996639        -26.2211        0.0220379        -161.012
0.9063                 0.0302348        -86.1392         0.996616        -26.3754         0.996616        -26.3754        0.0221512        -161.052
0.9116                 0.0303554        -86.3173         0.996594        -26.5296         0.996594        -26.5296        0.0222646        -161.095
0.9169                  0.030476        -86.4945         0.996571        -26.6838         0.996571        -26.6838        0.0223781        -161.139
0.9222                 0.0305966        -86.6708         0.996548        -26.8381         0.996548        -26.8381        0.0224918        -161.184
0.9275                 0.0307171        -86.8463         0.996526        -26.9923         0.996526        -26.9923        0.0226055        -161.232
0.9328                 0.0308377         -87.021         0.996503        -27.1465         0.996503        -27.1465        0.0227194        -161.282
0.9381                 0.0309582        -87.1948          0.99648        -27.3007          0.99648        -27.3007        0.0228334        -161.334
0.9434                 0.0310786        -87.3679         0.996457         -27.455         0.996457         -27.455        0.0229475        -161.387
0.9487                  0.031199        -87.5401         0.996434        -27.6092         0.996434        -27.6092        0.0230617        -161.442
0.954                  0.0313194        -87.7116         0.996411        -27.7634         0.996411        -27.7634        0.0231761        -161.499
0.9593                 0.0314398        -87.8822         0.996389        -27.9176         0.996389        -27.9176        0.0232905        -161.558
0.9646                 0.0315601        -88.0521         0.996366        -28.0719         0.996366        -28.0719         0.023405        -161.618
0.9699                 0.0316804        -88.2212         0.996343        -28.2261         0.996343        -28.2261        0.0235196         -161.68
0.9752                 0.0318006        -88.3895          0.99632        -28.3803          0.99632        -28.3803        0.0236343        -161.744
0.9805                 0.0319209        -88.5571         0.996296        -28.5345         0.996296        -28.5345        0.0237491         -161.81
0.9858                  0.032041         -88.724         0.996273        -28.6888         0.996273        -28.6888        0.0238639        -161.877
0.9911                 0.0321611        -88.8901          0.99625         -28.843          0.99625         -28.843        0.0239789        -161.945
0.9964                 0.0322812        -89.0554         0.996227        -28.9972         0.996227        -28.9972        0.0240939        -162.016