! TOUCHSTONE file generated by CST MICROWAVE STUDIO
! Date and time: Tue Jan  7 09:43:52 2020
! Project name: OSHPark_FR408_Transition2.cst
! Parameters = {GND_Plane_XMax=12.75; Cap_Disk_XOffset=0; Cap_Disk2_YCenter=-1.03; Cap_Disk_YCenter=1.03; Cap_Disk_XCenter=7.39; Cap_Disk_Radius=0.5; BottomSupport_Left_YMax=4.76; BottomSupport_Left_YMin=3.74; BottomSupport_Right_YMax=-3.74; BottomSupport_Right_YMin=-4.76; BottomSupport_XMax=11.64; BottomSupport_XMin=6.89; BottomSupport_ZMax=-1.64084; BottomSupport_ZMin=-3.58; Cu1_Thickness=0.03556; Cu2_Thickness=0.01778; Fr408Core_Thickness=1.1938; GND_Plane_Offset=2.9; PCBThickness=1.6256; Prepreg1_Zmin=-0.20574; Prepreg_Thickness=0.17018; RFTraceYMax=0.17145; RFTrace_XMax=15; RFTrace_XMin=11.46; RFTrace_YMin=-0.17145; SMA_CenterCond_Inner_XMax=11.64; SMA_CenterCond_Radius=0.6; SMA_Dielectric_InnerRadius=0.6; SMA_Dielectric_OuterRadius=2; SMA_Dielectric_XMax=5.62; SMA_Dielectric_XMin=0; SMA_Dielectric_YCenter=0; SMA_Dielectric_ZCenter=0; SMA_Footprint_Center_XMax=12.49; SMA_Footprint_Center_XMin=7.74; SMA_Footprint_Center_YMax=0.75; SMA_Footprint_Center_YMin=-0.75; SMA_OuterCond_InnerRadius=2; SMA_OuterCond_OuterRadius=3; SMA_OuterCond_XMax=6.89; SMA_XMax=6.67; SMA_XMin=0; SMA_YCenter=0; SMA_ZCenter=0; TopSupport_ZMax=1.02; TopSupport_ZMin=0; Via1_XCenter=7.5; Via1_YCenter=-4.25; Via2_XCenter=8.75; Via2_YCenter=-4.25; Via3_XCenter=10; Via3_YCenter=-4.25; Via4_XCenter=11.25; Via4_YCenter=-4.25; Via5_XCenter=7.5; Via5_YCenter=4.25; Via6_XCenter=8.75; Via6_YCenter=4.25; Via7_XCenter=10; Via7_YCenter=4.25; Via8_XCenter=11.25; Via8_YCenter=4.25; ViaInnerRadius=0; ViaOuterRadius=0.381}
! Header version: 2015
! Port assignment regex: !\s*Touchstone port\s*([0-9]+)\s*=\s*CST MWS port\s*([0-9]+)\s*\(\"(.*)\"\)(\s*mode\s*([0-9]+))?.*
! Touchstone port assignment:
! Touchstone port 1 = CST MWS port 1 ("")
! Touchstone port 2 = CST MWS port 2 ("")
# GHz S MA R 50
0                     0.00946249               0         0.999969               0         0.999969               0       0.00946201             180
0.0053                 0.0107059        -27.7053         0.999924       -0.159686         0.999924       -0.159686         0.010896         149.788
0.0106                 0.0106902        -28.0459         0.999941       -0.306295         0.999941       -0.306295        0.0109106         149.835
0.0159                 0.0106712        -27.9717         0.999922       -0.456946         0.999922       -0.456946         0.010928          149.46
0.0212                  0.010646        -27.8251         0.999903        -0.60845         0.999903        -0.60845        0.0109524         149.016
0.0265                 0.0106182        -27.6517         0.999884       -0.760269         0.999884       -0.760269        0.0109801         148.549
0.0318                 0.0105888        -27.4659         0.999866        -0.91224         0.999866        -0.91224        0.0110093         148.071
0.0371                 0.0105589        -27.2716         0.999847         -1.0643         0.999847         -1.0643        0.0110396         147.588
0.0424                 0.0105293        -27.0701         0.999829         -1.2164         0.999829         -1.2164        0.0110712         147.104
0.0477                 0.0104991        -26.8653         0.999811        -1.36855         0.999811        -1.36855         0.011103         146.619
0.053                  0.0104685         -26.658         0.999792        -1.52071         0.999792        -1.52071        0.0111349         146.132
0.0583                 0.0104376        -26.4488         0.999774         -1.6729         0.999774         -1.6729        0.0111667         145.644
0.0636                 0.0104067         -26.237         0.999756        -1.82509         0.999756        -1.82509        0.0111989         145.156
0.0689                  0.010376        -26.0228         0.999738         -1.9773         0.999738         -1.9773        0.0112313         144.669
0.0742                 0.0103452        -25.8065          0.99972        -2.12951          0.99972        -2.12951        0.0112638         144.183
0.0795                 0.0103145        -25.5884         0.999702        -2.28173         0.999702        -2.28173        0.0112965         143.697
0.0848                 0.0102839        -25.3684         0.999684        -2.43395         0.999684        -2.43395        0.0113293         143.212
0.0901                 0.0102533        -25.1467         0.999665        -2.58618         0.999665        -2.58618        0.0113621         142.727
0.0954                 0.0102228        -24.9233         0.999647        -2.73841         0.999647        -2.73841        0.0113951         142.244
0.1007                 0.0101923        -24.6982         0.999629        -2.89064         0.999629        -2.89064        0.0114281         141.761
0.106                   0.010162        -24.4714         0.999611        -3.04288         0.999611        -3.04288        0.0114613         141.279
0.1113                 0.0101318        -24.2429         0.999593        -3.19511         0.999593        -3.19511        0.0114945         140.798
0.1166                 0.0101016        -24.0127         0.999575        -3.34735         0.999575        -3.34735        0.0115277         140.318
0.1219                 0.0100716        -23.7808         0.999557        -3.49959         0.999557        -3.49959        0.0115611         139.839
0.1272                 0.0100417        -23.5473         0.999539        -3.65183         0.999539        -3.65183        0.0115945          139.36
0.1325                 0.0100119        -23.3122          0.99952        -3.80407          0.99952        -3.80407        0.0116279         138.883
0.1378                0.00998218        -23.0753         0.999502         -3.9563         0.999502         -3.9563        0.0116615         138.406
0.1431                0.00995261        -22.8368         0.999484        -4.10854         0.999484        -4.10854        0.0116951          137.93
0.1484                0.00992316        -22.5965         0.999466        -4.26078         0.999466        -4.26078        0.0117287         137.455
0.1537                0.00989383        -22.3546         0.999448        -4.41303         0.999448        -4.41303        0.0117624         136.981
0.159                 0.00986462         -22.111         0.999429        -4.56527         0.999429        -4.56527        0.0117961         136.508
0.1643                0.00983557        -21.8656         0.999411        -4.71751         0.999411        -4.71751          0.01183         136.035
0.1696                0.00980664        -21.6186         0.999393        -4.86975         0.999393        -4.86975        0.0118638         135.564
0.1749                0.00977783        -21.3697         0.999375        -5.02199         0.999375        -5.02199        0.0118978         135.093
0.1802                0.00974917        -21.1192         0.999357        -5.17423         0.999357        -5.17423        0.0119317         134.623
0.1855                0.00972064        -20.8669         0.999338        -5.32647         0.999338        -5.32647        0.0119658         134.154
0.1908                0.00969228        -20.6127          0.99932        -5.47871          0.99932        -5.47871        0.0119998         133.686
0.1961                0.00966406        -20.3568         0.999302        -5.63095         0.999302        -5.63095         0.012034         133.218
0.2014                0.00963597        -20.0991         0.999283        -5.78319         0.999283        -5.78319        0.0120682         132.751
0.2067                0.00960804        -19.8396         0.999265        -5.93543         0.999265        -5.93543        0.0121024         132.285
0.212                 0.00958026        -19.5783         0.999247        -6.08766         0.999247        -6.08766        0.0121367          131.82
0.2173                0.00955266        -19.3151         0.999228         -6.2399         0.999228         -6.2399        0.0121711         131.356
0.2226                0.00952521          -19.05          0.99921        -6.39214          0.99921        -6.39214        0.0122055         130.892
0.2279                0.00949791        -18.7831         0.999192        -6.54438         0.999192        -6.54438        0.0122399         130.429
0.2332                0.00947078        -18.5143         0.999173        -6.69662         0.999173        -6.69662        0.0122744         129.967
0.2385                0.00944381        -18.2437         0.999155        -6.84885         0.999155        -6.84885         0.012309         129.506
0.2438                0.00941703        -17.9711         0.999137        -7.00109         0.999137        -7.00109        0.0123436         129.045
0.2491                0.00939042        -17.6966         0.999118        -7.15333         0.999118        -7.15333        0.0123782         128.585
0.2544                0.00936398        -17.4201           0.9991        -7.30556           0.9991        -7.30556        0.0124129         128.126
0.2597                0.00933772        -17.1417         0.999081         -7.4578         0.999081         -7.4578        0.0124477         127.667
0.265                 0.00931164        -16.8614         0.999063        -7.61003         0.999063        -7.61003        0.0124825         127.209
0.2703                0.00928576        -16.5791         0.999044        -7.76227         0.999044        -7.76227        0.0125174         126.752
0.2756                0.00926006        -16.2948         0.999026         -7.9145         0.999026         -7.9145        0.0125523         126.295
0.2809                0.00923455        -16.0085         0.999007        -8.06674         0.999007        -8.06674        0.0125873          125.84
0.2862                0.00920923        -15.7202         0.998989        -8.21897         0.998989        -8.21897        0.0126223         125.384
0.2915                0.00918411        -15.4299          0.99897        -8.37121          0.99897        -8.37121        0.0126574          124.93
0.2968                0.00915921        -15.1375         0.998952        -8.52344         0.998952        -8.52344        0.0126926         124.476
0.3021                0.00913451        -14.8432         0.998933        -8.67567         0.998933        -8.67567        0.0127278         124.023
0.3074                   0.00911        -14.5467         0.998915         -8.8279         0.998915         -8.8279         0.012763          123.57
0.3127                0.00908571        -14.2483         0.998896        -8.98013         0.998896        -8.98013        0.0127984         123.118
0.318                 0.00906163        -13.9477         0.998878        -9.13237         0.998878        -9.13237        0.0128337         122.666
0.3233                0.00903779        -13.6451         0.998859         -9.2846         0.998859         -9.2846        0.0128692         122.216
0.3286                0.00901416        -13.3403         0.998841        -9.43683         0.998841        -9.43683        0.0129047         121.765
0.3339                0.00899075        -13.0335         0.998822        -9.58906         0.998822        -9.58906        0.0129402         121.316
0.3392                0.00896757        -12.7246         0.998803        -9.74129         0.998803        -9.74129        0.0129758         120.867
0.3445                0.00894462        -12.4136         0.998785        -9.89352         0.998785        -9.89352        0.0130115         120.418
0.3498                0.00892193        -12.1004         0.998766        -10.0457         0.998766        -10.0457        0.0130472          119.97
0.3551                0.00889947        -11.7851         0.998747         -10.198         0.998747         -10.198         0.013083         119.523
0.3604                0.00887725        -11.4677         0.998729        -10.3502         0.998729        -10.3502        0.0131188         119.076
0.3657                0.00885527        -11.1482          0.99871        -10.5024          0.99871        -10.5024        0.0131547          118.63
0.371                 0.00883354        -10.8265         0.998691        -10.6547         0.998691        -10.6547        0.0131907         118.184
0.3763                0.00881209        -10.5026         0.998672        -10.8069         0.998672        -10.8069        0.0132268         117.739
0.3816                 0.0087909        -10.1766         0.998654        -10.9591         0.998654        -10.9591        0.0132629         117.295
0.3869                0.00876995        -9.84851         0.998635        -11.1113         0.998635        -11.1113         0.013299         116.851
0.3922                0.00874928        -9.51821         0.998616        -11.2636         0.998616        -11.2636        0.0133353         116.407
0.3975                0.00872887        -9.18575         0.998597        -11.4158         0.998597        -11.4158        0.0133716         115.964
0.4028                0.00870877        -8.85112         0.998579         -11.568         0.998579         -11.568        0.0134079         115.522
0.4081                0.00868893        -8.51433          0.99856        -11.7202          0.99856        -11.7202        0.0134444          115.08
0.4134                0.00866937        -8.17538         0.998541        -11.8725         0.998541        -11.8725        0.0134809         114.638
0.4187                 0.0086501        -7.83428         0.998522        -12.0247         0.998522        -12.0247        0.0135174         114.197
0.424                 0.00863113        -7.49102         0.998503        -12.1769         0.998503        -12.1769        0.0135541         113.757
0.4293                0.00861247         -7.1456         0.998484        -12.3291         0.998484        -12.3291        0.0135908         113.317
0.4346                 0.0085941        -6.79802         0.998465        -12.4813         0.998465        -12.4813        0.0136276         112.878
0.4399                0.00857603         -6.4483         0.998447        -12.6336         0.998447        -12.6336        0.0136644         112.439
0.4452                0.00855828        -6.09644         0.998428        -12.7858         0.998428        -12.7858        0.0137014             112
0.4505                0.00854084        -5.74245         0.998409         -12.938         0.998409         -12.938        0.0137384         111.562
0.4558                0.00852373        -5.38631          0.99839        -13.0902          0.99839        -13.0902        0.0137755         111.124
0.4611                0.00850695        -5.02806         0.998371        -13.2425         0.998371        -13.2425        0.0138126         110.687
0.4664                0.00849048        -4.66769         0.998352        -13.3947         0.998352        -13.3947        0.0138498         110.251
0.4717                0.00847435        -4.30523         0.998333        -13.5469         0.998333        -13.5469        0.0138872         109.815
0.477                 0.00845856        -3.94066         0.998314        -13.6991         0.998314        -13.6991        0.0139245         109.379
0.4823                0.00844313        -3.57402         0.998295        -13.8513         0.998295        -13.8513         0.013962         108.944
0.4876                0.00842804        -3.20531         0.998276        -14.0036         0.998276        -14.0036        0.0139996         108.509
0.4929                0.00841329        -2.83454         0.998257        -14.1558         0.998257        -14.1558        0.0140372         108.074
0.4982                 0.0083989        -2.46173         0.998237         -14.308         0.998237         -14.308        0.0140749          107.64
0.5035                0.00838487         -2.0869         0.998218        -14.4602         0.998218        -14.4602        0.0141127         107.207
0.5088                0.00837123        -1.71006         0.998199        -14.6124         0.998199        -14.6124        0.0141506         106.774
0.5141                0.00835795        -1.33124          0.99818        -14.7646          0.99818        -14.7646        0.0141886         106.341
0.5194                0.00834504        -0.95044         0.998161        -14.9169         0.998161        -14.9169        0.0142266         105.909
0.5247                0.00833251       -0.567693         0.998142        -15.0691         0.998142        -15.0691        0.0142647         105.477
0.53                  0.00832037       -0.183018         0.998123        -15.2213         0.998123        -15.2213         0.014303         105.046
0.5353                0.00830863        0.203555         0.998103        -15.3735         0.998103        -15.3735        0.0143413         104.615
0.5406                0.00829728         0.59201         0.998084        -15.5257         0.998084        -15.5257        0.0143797         104.184
0.5459                0.00828632        0.982326         0.998065        -15.6779         0.998065        -15.6779        0.0144182         103.754
0.5512                0.00827577         1.37447         0.998046        -15.8301         0.998046        -15.8301        0.0144568         103.324
0.5565                0.00826562         1.76842         0.998027        -15.9824         0.998027        -15.9824        0.0144954         102.895
0.5618                0.00825591         2.16414         0.998007        -16.1346         0.998007        -16.1346        0.0145342         102.466
0.5671                0.00824661         2.56159         0.997988        -16.2868         0.997988        -16.2868        0.0145731         102.037
0.5724                0.00823773         2.96077         0.997969         -16.439         0.997969         -16.439        0.0146121         101.609
0.5777                0.00822927         3.36163         0.997949        -16.5912         0.997949        -16.5912        0.0146511         101.182
0.583                 0.00822125         3.76414          0.99793        -16.7434          0.99793        -16.7434        0.0146903         100.754
0.5883                0.00821368         4.16825         0.997911        -16.8956         0.997911        -16.8956        0.0147295         100.327
0.5936                0.00820655         4.57394         0.997891        -17.0479         0.997891        -17.0479        0.0147689         99.9007
0.5989                0.00819985         4.98117         0.997872        -17.2001         0.997872        -17.2001        0.0148083         99.4745
0.6042                0.00819361         5.38991         0.997852        -17.3523         0.997852        -17.3523        0.0148479         99.0487
0.6095                0.00818782         5.80012         0.997833        -17.5045         0.997833        -17.5045        0.0148876         98.6233
0.6148                0.00818251         6.21172         0.997814        -17.6567         0.997814        -17.6567        0.0149273         98.1983
0.6201                0.00817766         6.62472         0.997794        -17.8089         0.997794        -17.8089        0.0149672         97.7737
0.6254                0.00817327         7.03906         0.997775        -17.9611         0.997775        -17.9611        0.0150072         97.3495
0.6307                0.00816935         7.45469         0.997755        -18.1133         0.997755        -18.1133        0.0150472         96.9256
0.636                 0.00816591         7.87158         0.997736        -18.2655         0.997736        -18.2655        0.0150874         96.5021
0.6413                0.00816297         8.28964         0.997716        -18.4178         0.997716        -18.4178        0.0151277          96.079
0.6466                0.00816052         8.70887         0.997697          -18.57         0.997697          -18.57        0.0151681         95.6562
0.6519                0.00815854         9.12922         0.997677        -18.7222         0.997677        -18.7222        0.0152087         95.2339
0.6572                0.00815706         9.55062         0.997657        -18.8744         0.997657        -18.8744        0.0152493         94.8118
0.6625                0.00815607         9.97304         0.997638        -19.0266         0.997638        -19.0266          0.01529         94.3902
0.6678                0.00815561         10.3964         0.997618        -19.1788         0.997618        -19.1788        0.0153309          93.969
0.6731                0.00815564         10.8207         0.997598         -19.331         0.997598         -19.331        0.0153719         93.5481
0.6784                0.00815618         11.2458         0.997579        -19.4832         0.997579        -19.4832         0.015413         93.1275
0.6837                0.00815723         11.6717         0.997559        -19.6354         0.997559        -19.6354        0.0154542         92.7074
0.689                  0.0081588         12.0984         0.997539        -19.7876         0.997539        -19.7876        0.0154955         92.2876
0.6943                0.00816091         12.5257          0.99752        -19.9398          0.99752        -19.9398        0.0155369         91.8682
0.6996                0.00816354         12.9537           0.9975         -20.092           0.9975         -20.092        0.0155785         91.4491
0.7049                0.00816668         13.3822          0.99748        -20.2442          0.99748        -20.2442        0.0156202         91.0304
0.7102                0.00817036         13.8113          0.99746        -20.3965          0.99746        -20.3965         0.015662         90.6121
0.7155                0.00817458         14.2409         0.997441        -20.5487         0.997441        -20.5487        0.0157039         90.1941
0.7208                0.00817934         14.6708         0.997421        -20.7009         0.997421        -20.7009         0.015746         89.7765
0.7261                0.00818465          15.101         0.997401        -20.8531         0.997401        -20.8531        0.0157882         89.3593
0.7314                0.00819049         15.5316         0.997381        -21.0053         0.997381        -21.0053        0.0158305         88.9424
0.7367                0.00819688         15.9624         0.997361        -21.1575         0.997361        -21.1575        0.0158729         88.5259
0.742                 0.00820382         16.3933         0.997341        -21.3097         0.997341        -21.3097        0.0159155         88.1097
0.7473                0.00821132         16.8243         0.997322        -21.4619         0.997322        -21.4619        0.0159582         87.6939
0.7526                0.00821938         17.2554         0.997302        -21.6141         0.997302        -21.6141         0.016001         87.2785
0.7579                0.00822799         17.6864         0.997282        -21.7663         0.997282        -21.7663        0.0160439         86.8634
0.7632                0.00823716         18.1174         0.997262        -21.9185         0.997262        -21.9185         0.016087         86.4487
0.7685                0.00824689         18.5482         0.997242        -22.0707         0.997242        -22.0707        0.0161303         86.0343
0.7738                 0.0082572         18.9788         0.997222        -22.2229         0.997222        -22.2229        0.0161736         85.6203
0.7791                0.00826808         19.4091         0.997202        -22.3751         0.997202        -22.3751        0.0162171         85.2067
0.7844                0.00827951         19.8391         0.997182        -22.5273         0.997182        -22.5273        0.0162608         84.7934
0.7897                0.00829152         20.2687         0.997162        -22.6795         0.997162        -22.6795        0.0163045         84.3805
0.795                  0.0083041         20.6978         0.997142        -22.8317         0.997142        -22.8317        0.0163484         83.9679
0.8003                0.00831727         21.1264         0.997122        -22.9839         0.997122        -22.9839        0.0163925         83.5557
0.8056                0.00833101         21.5544         0.997101        -23.1361         0.997101        -23.1361        0.0164367         83.1439
0.8109                0.00834532         21.9818         0.997081        -23.2883         0.997081        -23.2883         0.016481         82.7324
0.8162                 0.0083602         22.4085         0.997061        -23.4405         0.997061        -23.4405        0.0165255         82.3213
0.8215                0.00837567         22.8344         0.997041        -23.5927         0.997041        -23.5927        0.0165701         81.9105
0.8268                0.00839174         23.2594         0.997021        -23.7449         0.997021        -23.7449        0.0166149         81.5001
0.8321                0.00840839         23.6836         0.997001        -23.8971         0.997001        -23.8971        0.0166598         81.0901
0.8374                0.00842561         24.1068          0.99698        -24.0493          0.99698        -24.0493        0.0167048         80.6805
0.8427                0.00844341         24.5291          0.99696        -24.2015          0.99696        -24.2015          0.01675         80.2711
0.848                  0.0084618         24.9502          0.99694        -24.3537          0.99694        -24.3537        0.0167954         79.8622
0.8533                0.00848079         25.3702          0.99692        -24.5059          0.99692        -24.5059        0.0168409         79.4536
0.8586                0.00850036         25.7891         0.996899        -24.6581         0.996899        -24.6581        0.0168866         79.0454
0.8639                0.00852051         26.2067         0.996879        -24.8103         0.996879        -24.8103        0.0169324         78.6376
0.8692                0.00854124          26.623         0.996859        -24.9625         0.996859        -24.9625        0.0169783         78.2301
0.8745                0.00856257          27.038         0.996838        -25.1147         0.996838        -25.1147        0.0170244          77.823
0.8798                0.00858449         27.4515         0.996818        -25.2669         0.996818        -25.2669        0.0170707         77.4162
0.8851                  0.008607         27.8636         0.996797        -25.4191         0.996797        -25.4191        0.0171171         77.0099
0.8904                0.00863008         28.2742         0.996777        -25.5713         0.996777        -25.5713        0.0171637         76.6038
0.8957                0.00865376         28.6832         0.996756        -25.7235         0.996756        -25.7235        0.0172105         76.1982
0.901                 0.00867802         29.0907         0.996736        -25.8757         0.996736        -25.8757        0.0172574         75.7929
0.9063                0.00870287         29.4964         0.996715        -26.0279         0.996715        -26.0279        0.0173044          75.388
0.9116                0.00872831         29.9004         0.996695        -26.1801         0.996695        -26.1801        0.0173516         74.9835
0.9169                0.00875434         30.3027         0.996674        -26.3323         0.996674        -26.3323         0.017399         74.5793
0.9222                0.00878094         30.7032         0.996654        -26.4845         0.996654        -26.4845        0.0174466         74.1755
0.9275                0.00880813         31.1018         0.996633        -26.6367         0.996633        -26.6367        0.0174943         73.7721
0.9328                0.00883591         31.4984         0.996613        -26.7889         0.996613        -26.7889        0.0175422         73.3691
0.9381                0.00886428         31.8932         0.996592        -26.9411         0.996592        -26.9411        0.0175902         72.9665
0.9434                0.00889321          32.286         0.996571        -27.0933         0.996571        -27.0933        0.0176384         72.5642
0.9487                0.00892272         32.6768         0.996551        -27.2455         0.996551        -27.2455        0.0176868         72.1623
0.954                 0.00895281         33.0655          0.99653        -27.3977          0.99653        -27.3977        0.0177353         71.7607
0.9593                0.00898349         33.4521         0.996509        -27.5499         0.996509        -27.5499         0.017784         71.3596
0.9646                0.00901474         33.8365         0.996489        -27.7021         0.996489        -27.7021        0.0178329         70.9588
0.9699                0.00904656         34.2188         0.996468        -27.8543         0.996468        -27.8543         0.017882         70.5584
0.9752                0.00907895         34.5989         0.996447        -28.0065         0.996447        -28.0065        0.0179312         70.1584
0.9805                0.00911191         34.9767         0.996426        -28.1587         0.996426        -28.1587        0.0179806         69.7588
0.9858                0.00914545         35.3522         0.996405        -28.3109         0.996405        -28.3109        0.0180301         69.3596
0.9911                0.00917956         35.7254         0.996385        -28.4631         0.996385        -28.4631        0.0180799         68.9607
0.9964                0.00921422         36.0963         0.996364        -28.6153         0.996364        -28.6153        0.0181298         68.5622